 PROCESS            2  OF           24  WORKING
 PROCESS            5  OF           24  WORKING
 PROCESS            6  OF           24  WORKING
 PROCESS            7  OF           24  WORKING
 PROCESS            0  OF           24  WORKING
 PROCESS            3  OF           24  WORKING
 PROCESS           16  OF           24  WORKING
 PROCESS           18  OF           24  WORKING
 PROCESS           19  OF           24  WORKING
 PROCESS           20  OF           24  WORKING
 PROCESS           21  OF           24  WORKING
 PROCESS           22  OF           24  WORKING
 PROCESS            1  OF           24  WORKING
 PROCESS            8  OF           24  WORKING
 PROCESS            9  OF           24  WORKING
 PROCESS           12  OF           24  WORKING
 PROCESS           17  OF           24  WORKING
 PROCESS           11  OF           24  WORKING
 PROCESS           15  OF           24  WORKING
 PROCESS           10  OF           24  WORKING
 PROCESS            4  OF           24  WORKING
 PROCESS           13  OF           24  WORKING
 PROCESS           14  OF           24  WORKING

         
 *******************************************************************************
 *                                                                             *
 *                               CRYSTAL23                                     *
 *                      public : 1.0.1 - October 2022                          *
 *                       HTTP://WWW.CRYSTAL.UNITO.IT                           *
 *                                                                             *
 *                              MAIN AUTHORS                                   *
 *                                                                             *
 *  R. DOVESI(1,11), V.R. SAUNDERS(2), C. ROETTI(1,11), R. ORLANDO(1,11),      *
 *  C.M. ZICOVICH-WILSON(1,3), F. PASCALE(4), B. CIVALLERI(1,11),              *
 *  K. DOLL(5), N.M. HARRISON(6), I.J. BUSH(7), Ph. D'ARCO(8),                 *
 *  M. LLUNELL(9), M. CAUSA'(10), Y. NOEL(8), L. MASCHIO(1,11), A. ERBA(1,11)  *
 *  M. RE'RAT(14), S. CASASSA(1,11), B.G. SEARLE(2), J.K. DESMARAIS(1)         *
 *                                                                             *
 *        CONTRIBUTIONS TO THE CODE HAVE ALSO BEEN GIVEN BY                    *
 *                                                                             *
 *  M. FERRABONE(1,11), M. DE LA PIERRE(1,11), M. FERRERO(1,11),               *
 *  J. BAIMA(1,11), E. ALBANESE(1,11), M.F. PEINTINGER(12), R. BAST(13),       *
 *  B. KIRTMAN(15), V. LACIVITA(1,11), R. DEMICHELIS(1,16)                     *
 *  G. BRANDEBURG(17), S. SALUSTRO(1,11), G. SANSONE(1,11)                     *
 *  M.T. RUGGIERO(18), L.E. DAGA(1), L. DONA'(1), A. COSSARD(1)                *
 *                                                                             *
 * (1) THEORETICAL CHEMISTRY GROUP - UNIVERSITA' DI TORINO - TORINO (ITALY)    *
 * (2) SCIENTIFIC COMPUTING DEPARTMENT - STFC DARESBURY (UK)                   *
 * (3) UNIVERSIDAD AUTONOMA DEL ESTADO DE MORELOS - CUERNAVACA (MEXICO)        *
 * (4) UNIVERSITE' DE LORRAINE - NANCY (FRANCE)                                *
 * (5) UNIVERSITAET STUTTGART- STUTTGART (GERMANY)                             *
 * (6) IMPERIAL COLLEGE - LONDON (UK)                                          *
 * (7) SCIENTIFIC COMPUTING DEPARTMENT - STFC RAL (UK)                         *
 * (8) UPMC - SORBONNE UNIVERSITES - PARIS (FRANCE)                            *
 * (9) UNIVERSIDAD DE BARCELONA - BARCELONA (SPAIN)                            *
 *(10) UNIVERSITA' DI NAPOLI "FEDERICO II" - NAPOLI (ITALY)                    *
 *(11) NIS - NANOSTRUCTURED INTERFACES AND SURFACES - TORINO (ITALY)           *
 *(12) MPI FUER CHEMISCHE ENERGIEKONVERSION - MUELHEIM AN DER RUHR (GERMANY)   *
 *(13) UNIVERSITY OF TROMSO - TROMSO (NORWAY)                                  *
 *(14) UNIVERSITE' DE PAU ET DES PAYS DE L'ADOUR - PAU (FRANCE)                *
 *(15) UNIVERSITY OF CALIFORNIA SANTA BARBARA - SANTA BARBARA (USA)            *
 *(16) CURTIN UNIVERSITY - PERTH (AUSTRALIA)                                   *
 *(17) UNIVERSITY COLLEGE LONDON - LONDON (UK)                                 *
 *(18) UNIVERSITY OF VERMONT - BURLINGTON (USA)                                *
 *                                                                             *
 *******************************************************************************
 EEEEEEEEEE STARTING  DATE 28 04 2025 TIME 16:38:06.9
 CoCltryCOF102_sym                                                               
 PROCESS           23  OF           24  WORKING

 CRYSTAL CALCULATION
 (INPUT ACCORDING TO THE INTERNATIONAL TABLES FOR X-RAY CRYSTALLOGRAPHY)
 CRYSTAL FAMILY                       :  CUBIC       
 CRYSTAL CLASS  (GROTH - 1921)        :  CUBIC HEXAKISTETRAHEDRAL             

 SPACE GROUP (NONCENTROSYMMETRIC)     :  I -4 3 D        

 LATTICE PARAMETERS  (ANGSTROMS AND DEGREES) - CONVENTIONAL CELL
        A           B           C        ALPHA        BETA       GAMMA
    23.92810    23.92810    23.92810    90.00000    90.00000    90.00000


 NUMBER OF IRREDUCIBLE ATOMS IN THE CONVENTIONAL CELL:   13

 INPUT COORDINATES

 ATOM AT. N.              COORDINATES
   1   6     3.509347480981E-01  9.315652428938E-02  2.017074752609E-01
   2   1     3.733875030093E-01  8.490582028930E-02  1.630460643641E-01
   3   6     3.391645851840E-01  5.236181655121E-02  2.422344903398E-01
   4   6     2.971960068637E-01  6.516016302631E-02  2.815660570439E-01
   5   1     2.779101450872E-01  3.330392731993E-02  3.079773596812E-01
   6   7     2.788471731399E-01  1.174457859237E-01  2.884192014127E-01
   7   6     3.037523653506E-01  1.558555244500E-01  2.548271025670E-01
   8   6     2.876797846484E-01  2.111092989152E-01  2.624902418785E-01
   9   7     3.331090918520E-01  1.456234905948E-01  2.074373887034E-01
  10   7     2.441468883706E-01  2.178830488771E-01  2.976061220209E-01
  11  27    -3.798846772517E-02  7.581535381843E-02 -9.442624540388E-02
  12  17    -8.255063725993E-02  9.509824886446E-02 -1.694947456784E-01
  13   6     3.750000000000E-01  0.000000000000E+00  2.500000000000E-01

 *******************************************************************************

 << INFORMATION >>: FROM NOW ON, ALL COORDINATES REFER TO THE PRIMITIVE CELL

 *******************************************************************************

 LATTICE PARAMETERS  (ANGSTROMS AND DEGREES) - PRIMITIVE CELL
       A          B          C        ALPHA      BETA     GAMMA        VOLUME
   20.72234   20.72234   20.72234   109.47122 109.47122 109.47122   6850.065505

 COORDINATES OF THE EQUIVALENT ATOMS (FRACTIONAL UNITS)

 N. ATOM EQUIV AT. N.          X                  Y                  Z

   1   1   1    6 C     2.94863999550E-01 -4.47357776641E-01  4.44091272387E-01
   2   1   2    6 C    -3.91449049028E-01 -1.49227272837E-01  5.59087276125E-02
   3   1   3    6 C     2.05136000450E-01 -3.50772727163E-01  2.57778223809E-01
   4   1   4    6 C    -1.08550950972E-01 -5.26422233590E-02  2.42221776191E-01
   5   1   5    6 C     4.44091272387E-01  2.94863999550E-01 -4.47357776641E-01
   6   1   6    6 C    -4.47357776641E-01  4.44091272387E-01  2.94863999550E-01
   7   1   7    6 C     2.42221776191E-01 -1.08550950972E-01 -5.26422233590E-02
   8   1   8    6 C    -1.49227272837E-01  5.59087276125E-02 -3.91449049028E-01
   9   1   9    6 C     5.59087276125E-02 -3.91449049028E-01 -1.49227272837E-01
  10   1  10    6 C    -3.50772727163E-01  2.57778223809E-01  2.05136000450E-01
  11   1  11    6 C     2.57778223809E-01  2.05136000450E-01 -3.50772727163E-01
  12   1  12    6 C    -5.26422233590E-02  2.42221776191E-01 -1.08550950972E-01
  13   1  13    6 C     5.26422233590E-02 -2.05136000450E-01 -5.59087276125E-02
  14   1  14    6 C     3.50772727163E-01  1.08550950972E-01 -4.44091272387E-01
  15   1  15    6 C     1.49227272837E-01 -2.94863999550E-01 -2.42221776191E-01
  16   1  16    6 C     4.47357776641E-01  3.91449049028E-01 -2.57778223809E-01
  17   1  17    6 C    -2.05136000450E-01 -5.59087276125E-02  5.26422233590E-02
  18   1  18    6 C    -5.59087276125E-02  5.26422233590E-02 -2.05136000450E-01
  19   1  19    6 C     3.91449049028E-01 -2.57778223809E-01  4.47357776641E-01
  20   1  20    6 C    -4.44091272387E-01  3.50772727163E-01  1.08550950972E-01
  21   1  21    6 C     1.08550950972E-01 -4.44091272387E-01  3.50772727163E-01
  22   1  22    6 C    -2.42221776191E-01  1.49227272837E-01 -2.94863999550E-01
  23   1  23    6 C    -2.94863999550E-01 -2.42221776191E-01  1.49227272837E-01
  24   1  24    6 C    -2.57778223809E-01  4.47357776641E-01  3.91449049028E-01

  25   2   1    1 H     2.47951884653E-01 -4.63566432627E-01  4.58293323299E-01
  26   2   2    1 H    -4.21859755925E-01 -2.10341438645E-01  4.17066767014E-02
  27   2   3    1 H     2.52048115347E-01 -2.89658561355E-01  2.88481682720E-01
  28   2   4    1 H    -7.81402440748E-02 -3.64335673734E-02  2.11518317280E-01
  29   2   5    1 H     4.58293323299E-01  2.47951884653E-01 -4.63566432627E-01
  30   2   6    1 H    -4.63566432627E-01  4.58293323299E-01  2.47951884653E-01
  31   2   7    1 H     2.11518317280E-01 -7.81402440748E-02 -3.64335673734E-02
  32   2   8    1 H    -2.10341438645E-01  4.17066767014E-02 -4.21859755925E-01
  33   2   9    1 H     4.17066767014E-02 -4.21859755925E-01 -2.10341438645E-01
  34   2  10    1 H    -2.89658561355E-01  2.88481682720E-01  2.52048115347E-01
  35   2  11    1 H     2.88481682720E-01  2.52048115347E-01 -2.89658561355E-01
  36   2  12    1 H    -3.64335673734E-02  2.11518317280E-01 -7.81402440748E-02
  37   2  13    1 H     3.64335673734E-02 -2.52048115347E-01 -4.17066767014E-02
  38   2  14    1 H     2.89658561355E-01  7.81402440748E-02 -4.58293323299E-01
  39   2  15    1 H     2.10341438645E-01 -2.47951884653E-01 -2.11518317280E-01
  40   2  16    1 H     4.63566432627E-01  4.21859755925E-01 -2.88481682720E-01
  41   2  17    1 H    -2.52048115347E-01 -4.17066767014E-02  3.64335673734E-02
  42   2  18    1 H    -4.17066767014E-02  3.64335673734E-02 -2.52048115347E-01
  43   2  19    1 H     4.21859755925E-01 -2.88481682720E-01  4.63566432627E-01
  44   2  20    1 H    -4.58293323299E-01  2.89658561355E-01  7.81402440748E-02
  45   2  21    1 H     7.81402440748E-02 -4.58293323299E-01  2.89658561355E-01
  46   2  22    1 H    -2.11518317280E-01  2.10341438645E-01 -2.47951884653E-01
  47   2  23    1 H    -2.47951884653E-01 -2.11518317280E-01  2.10341438645E-01
  48   2  24    1 H    -2.88481682720E-01  4.63566432627E-01  4.21859755925E-01

  49   3   1    6 C     2.94596306891E-01 -4.18600924476E-01  3.91526401735E-01
  50   3   2    6 C    -3.10127326211E-01 -9.69300948442E-02  1.08473598265E-01
  51   3   3    6 C     2.05403693109E-01 -4.03069905156E-01  2.86802768633E-01
  52   3   4    6 C    -1.89872673789E-01 -8.13990755238E-02  2.13197231367E-01
  53   3   5    6 C     3.91526401735E-01  2.94596306891E-01 -4.18600924476E-01
  54   3   6    6 C    -4.18600924476E-01  3.91526401735E-01  2.94596306891E-01
  55   3   7    6 C     2.13197231367E-01 -1.89872673789E-01 -8.13990755238E-02
  56   3   8    6 C    -9.69300948442E-02  1.08473598265E-01 -3.10127326211E-01
  57   3   9    6 C     1.08473598265E-01 -3.10127326211E-01 -9.69300948442E-02
  58   3  10    6 C    -4.03069905156E-01  2.86802768633E-01  2.05403693109E-01
  59   3  11    6 C     2.86802768633E-01  2.05403693109E-01 -4.03069905156E-01
  60   3  12    6 C    -8.13990755238E-02  2.13197231367E-01 -1.89872673789E-01
  61   3  13    6 C     8.13990755238E-02 -2.05403693109E-01 -1.08473598265E-01
  62   3  14    6 C     4.03069905156E-01  1.89872673789E-01 -3.91526401735E-01
  63   3  15    6 C     9.69300948442E-02 -2.94596306891E-01 -2.13197231367E-01
  64   3  16    6 C     4.18600924476E-01  3.10127326211E-01 -2.86802768633E-01
  65   3  17    6 C    -2.05403693109E-01 -1.08473598265E-01  8.13990755238E-02
  66   3  18    6 C    -1.08473598265E-01  8.13990755238E-02 -2.05403693109E-01
  67   3  19    6 C     3.10127326211E-01 -2.86802768633E-01  4.18600924476E-01
  68   3  20    6 C    -3.91526401735E-01  4.03069905156E-01  1.89872673789E-01
  69   3  21    6 C     1.89872673789E-01 -3.91526401735E-01  4.03069905156E-01
  70   3  22    6 C    -2.13197231367E-01  9.69300948442E-02 -2.94596306891E-01
  71   3  23    6 C    -2.94596306891E-01 -2.13197231367E-01  9.69300948442E-02
  72   3  24    6 C    -2.86802768633E-01  4.18600924476E-01  3.10127326211E-01

  73   4   1    6 C     3.46726220070E-01 -4.21237936092E-01  3.62356169890E-01
  74   4   2    6 C    -2.83594105982E-01 -1.56299498198E-02  1.37643830110E-01
  75   4   3    6 C     1.53273779930E-01 -4.84370050180E-01  2.32035843837E-01
  76   4   4    6 C    -2.16405894018E-01 -7.87620639076E-02  2.67964156163E-01
  77   4   5    6 C     3.62356169890E-01  3.46726220070E-01 -4.21237936092E-01
  78   4   6    6 C    -4.21237936092E-01  3.62356169890E-01  3.46726220070E-01
  79   4   7    6 C     2.67964156163E-01 -2.16405894018E-01 -7.87620639076E-02
  80   4   8    6 C    -1.56299498198E-02  1.37643830110E-01 -2.83594105982E-01
  81   4   9    6 C     1.37643830110E-01 -2.83594105982E-01 -1.56299498198E-02
  82   4  10    6 C    -4.84370050180E-01  2.32035843837E-01  1.53273779930E-01
  83   4  11    6 C     2.32035843837E-01  1.53273779930E-01 -4.84370050180E-01
  84   4  12    6 C    -7.87620639076E-02  2.67964156163E-01 -2.16405894018E-01
  85   4  13    6 C     7.87620639076E-02 -1.53273779930E-01 -1.37643830110E-01
  86   4  14    6 C     4.84370050180E-01  2.16405894018E-01 -3.62356169890E-01
  87   4  15    6 C     1.56299498198E-02 -3.46726220070E-01 -2.67964156163E-01
  88   4  16    6 C     4.21237936092E-01  2.83594105982E-01 -2.32035843837E-01
  89   4  17    6 C    -1.53273779930E-01 -1.37643830110E-01  7.87620639076E-02
  90   4  18    6 C    -1.37643830110E-01  7.87620639076E-02 -1.53273779930E-01
  91   4  19    6 C     2.83594105982E-01 -2.32035843837E-01  4.21237936092E-01
  92   4  20    6 C    -3.62356169890E-01  4.84370050180E-01  2.16405894018E-01
  93   4  21    6 C     2.16405894018E-01 -3.62356169890E-01  4.84370050180E-01
  94   4  22    6 C    -2.67964156163E-01  1.56299498198E-02 -3.46726220070E-01
  95   4  23    6 C    -3.46726220070E-01 -2.67964156163E-01  1.56299498198E-02
  96   4  24    6 C    -2.32035843837E-01  4.21237936092E-01  2.83594105982E-01

  97   5   1    1 H     3.41281287001E-01 -4.14112495232E-01  3.11214072407E-01
  98   5   2    1 H    -2.25326567639E-01  3.00672145940E-02  1.88785927593E-01
  99   5   3    1 H     1.58718712999E-01  4.69932785406E-01  2.44606217767E-01
 100   5   4    1 H    -2.74673432361E-01 -8.58875047684E-02  2.55393782233E-01
 101   5   5    1 H     3.11214072407E-01  3.41281287001E-01 -4.14112495232E-01
 102   5   6    1 H    -4.14112495232E-01  3.11214072407E-01  3.41281287001E-01
 103   5   7    1 H     2.55393782233E-01 -2.74673432361E-01 -8.58875047684E-02
 104   5   8    1 H     3.00672145940E-02  1.88785927593E-01 -2.25326567639E-01
 105   5   9    1 H     1.88785927593E-01 -2.25326567639E-01  3.00672145940E-02
 106   5  10    1 H     4.69932785406E-01  2.44606217767E-01  1.58718712999E-01
 107   5  11    1 H     2.44606217767E-01  1.58718712999E-01  4.69932785406E-01
 108   5  12    1 H    -8.58875047684E-02  2.55393782233E-01 -2.74673432361E-01
 109   5  13    1 H     8.58875047684E-02 -1.58718712999E-01 -1.88785927593E-01
 110   5  14    1 H    -4.69932785406E-01  2.74673432361E-01 -3.11214072407E-01
 111   5  15    1 H    -3.00672145940E-02 -3.41281287001E-01 -2.55393782233E-01
 112   5  16    1 H     4.14112495232E-01  2.25326567639E-01 -2.44606217767E-01
 113   5  17    1 H    -1.58718712999E-01 -1.88785927593E-01  8.58875047684E-02
 114   5  18    1 H    -1.88785927593E-01  8.58875047684E-02 -1.58718712999E-01
 115   5  19    1 H     2.25326567639E-01 -2.44606217767E-01  4.14112495232E-01
 116   5  20    1 H    -3.11214072407E-01 -4.69932785406E-01  2.74673432361E-01
 117   5  21    1 H     2.74673432361E-01 -3.11214072407E-01 -4.69932785406E-01
 118   5  22    1 H    -2.55393782233E-01 -3.00672145940E-02 -3.41281287001E-01
 119   5  23    1 H    -3.41281287001E-01 -2.55393782233E-01 -3.00672145940E-02
 120   5  24    1 H    -2.44606217767E-01  4.14112495232E-01  2.25326567639E-01

 121   6   1    7 N     4.05864987336E-01 -4.32733625447E-01  3.96292959064E-01
 122   6   2    7 N    -3.29026584511E-01  9.57202827280E-03  1.03707040936E-01
 123   6   3    7 N     9.41350126636E-02  4.90427971727E-01  1.61401387216E-01
 124   6   4    7 N    -1.70973415489E-01 -6.72663745526E-02  3.38598612784E-01
 125   6   5    7 N     3.96292959064E-01  4.05864987336E-01 -4.32733625447E-01
 126   6   6    7 N    -4.32733625447E-01  3.96292959064E-01  4.05864987336E-01
 127   6   7    7 N     3.38598612784E-01 -1.70973415489E-01 -6.72663745526E-02
 128   6   8    7 N     9.57202827280E-03  1.03707040936E-01 -3.29026584511E-01
 129   6   9    7 N     1.03707040936E-01 -3.29026584511E-01  9.57202827280E-03
 130   6  10    7 N     4.90427971727E-01  1.61401387216E-01  9.41350126636E-02
 131   6  11    7 N     1.61401387216E-01  9.41350126636E-02  4.90427971727E-01
 132   6  12    7 N    -6.72663745526E-02  3.38598612784E-01 -1.70973415489E-01
 133   6  13    7 N     6.72663745526E-02 -9.41350126636E-02 -1.03707040936E-01
 134   6  14    7 N    -4.90427971727E-01  1.70973415489E-01 -3.96292959064E-01
 135   6  15    7 N    -9.57202827280E-03 -4.05864987336E-01 -3.38598612784E-01
 136   6  16    7 N     4.32733625447E-01  3.29026584511E-01 -1.61401387216E-01
 137   6  17    7 N    -9.41350126636E-02 -1.03707040936E-01  6.72663745526E-02
 138   6  18    7 N    -1.03707040936E-01  6.72663745526E-02 -9.41350126636E-02
 139   6  19    7 N     3.29026584511E-01 -1.61401387216E-01  4.32733625447E-01
 140   6  20    7 N    -3.96292959064E-01 -4.90427971727E-01  1.70973415489E-01
 141   6  21    7 N     1.70973415489E-01 -3.96292959064E-01 -4.90427971727E-01
 142   6  22    7 N    -3.38598612784E-01 -9.57202827280E-03 -4.05864987336E-01
 143   6  23    7 N    -4.05864987336E-01 -3.38598612784E-01 -9.57202827280E-03
 144   6  24    7 N    -1.61401387216E-01  4.32733625447E-01  3.29026584511E-01

 145   7   1    6 C     4.10682627017E-01 -4.41420532082E-01  4.59607889801E-01
 146   7   2    6 C    -4.01028421883E-01 -4.89252627836E-02  4.03921101994E-02
 147   7   3    6 C     8.93173729830E-02 -4.51074737216E-01  1.47896840901E-01
 148   7   4    6 C    -9.89715781170E-02 -5.85794679176E-02  3.52103159099E-01
 149   7   5    6 C     4.59607889801E-01  4.10682627017E-01 -4.41420532082E-01
 150   7   6    6 C    -4.41420532082E-01  4.59607889801E-01  4.10682627017E-01
 151   7   7    6 C     3.52103159099E-01 -9.89715781170E-02 -5.85794679176E-02
 152   7   8    6 C    -4.89252627836E-02  4.03921101994E-02 -4.01028421883E-01
 153   7   9    6 C     4.03921101994E-02 -4.01028421883E-01 -4.89252627836E-02
 154   7  10    6 C    -4.51074737216E-01  1.47896840901E-01  8.93173729830E-02
 155   7  11    6 C     1.47896840901E-01  8.93173729830E-02 -4.51074737216E-01
 156   7  12    6 C    -5.85794679176E-02  3.52103159099E-01 -9.89715781170E-02
 157   7  13    6 C     5.85794679176E-02 -8.93173729830E-02 -4.03921101994E-02
 158   7  14    6 C     4.51074737216E-01  9.89715781170E-02 -4.59607889801E-01
 159   7  15    6 C     4.89252627836E-02 -4.10682627017E-01 -3.52103159099E-01
 160   7  16    6 C     4.41420532082E-01  4.01028421883E-01 -1.47896840901E-01
 161   7  17    6 C    -8.93173729830E-02 -4.03921101994E-02  5.85794679176E-02
 162   7  18    6 C    -4.03921101994E-02  5.85794679176E-02 -8.93173729830E-02
 163   7  19    6 C     4.01028421883E-01 -1.47896840901E-01  4.41420532082E-01
 164   7  20    6 C    -4.59607889801E-01  4.51074737216E-01  9.89715781170E-02
 165   7  21    6 C     9.89715781170E-02 -4.59607889801E-01  4.51074737216E-01
 166   7  22    6 C    -3.52103159099E-01  4.89252627836E-02 -4.10682627017E-01
 167   7  23    6 C    -4.10682627017E-01 -3.52103159099E-01  4.89252627836E-02
 168   7  24    6 C    -1.47896840901E-01  4.41420532082E-01  4.01028421883E-01

 169   8   1    6 C     4.73599540794E-01 -4.49829973473E-01  4.98789083564E-01
 170   8   2    6 C    -4.48619057037E-01 -2.51895427699E-02  1.21091643640E-03
 171   8   3    6 C     2.64004592063E-02 -4.74810457230E-01  7.65704857332E-02
 172   8   4    6 C    -5.13809429633E-02 -5.01700265269E-02  4.23429514267E-01
 173   8   5    6 C     4.98789083564E-01  4.73599540794E-01 -4.49829973473E-01
 174   8   6    6 C    -4.49829973473E-01  4.98789083564E-01  4.73599540794E-01
 175   8   7    6 C     4.23429514267E-01 -5.13809429633E-02 -5.01700265269E-02
 176   8   8    6 C    -2.51895427699E-02  1.21091643640E-03 -4.48619057037E-01
 177   8   9    6 C     1.21091643640E-03 -4.48619057037E-01 -2.51895427699E-02
 178   8  10    6 C    -4.74810457230E-01  7.65704857332E-02  2.64004592063E-02
 179   8  11    6 C     7.65704857332E-02  2.64004592063E-02 -4.74810457230E-01
 180   8  12    6 C    -5.01700265269E-02  4.23429514267E-01 -5.13809429633E-02
 181   8  13    6 C     5.01700265269E-02 -2.64004592063E-02 -1.21091643640E-03
 182   8  14    6 C     4.74810457230E-01  5.13809429633E-02 -4.98789083564E-01
 183   8  15    6 C     2.51895427699E-02 -4.73599540794E-01 -4.23429514267E-01
 184   8  16    6 C     4.49829973473E-01  4.48619057037E-01 -7.65704857332E-02
 185   8  17    6 C    -2.64004592063E-02 -1.21091643640E-03  5.01700265269E-02
 186   8  18    6 C    -1.21091643640E-03  5.01700265269E-02 -2.64004592063E-02
 187   8  19    6 C     4.48619057037E-01 -7.65704857332E-02  4.49829973473E-01
 188   8  20    6 C    -4.98789083564E-01  4.74810457230E-01  5.13809429633E-02
 189   8  21    6 C     5.13809429633E-02 -4.98789083564E-01  4.74810457230E-01
 190   8  22    6 C    -4.23429514267E-01  2.51895427699E-02 -4.73599540794E-01
 191   8  23    6 C    -4.73599540794E-01 -4.23429514267E-01  2.51895427699E-02
 192   8  24    6 C    -7.65704857332E-02  4.49829973473E-01  4.48619057037E-01

 193   9   1    7 N     3.53060879298E-01 -4.59453519445E-01  4.78732582447E-01
 194   9   2    7 N    -4.38186101891E-01 -1.25671703149E-01  2.12674175532E-02
 195   9   3    7 N     1.46939120702E-01 -3.74328296851E-01  1.87485601257E-01
 196   9   4    7 N    -6.18138981086E-02 -4.05464805554E-02  3.12514398743E-01
 197   9   5    7 N     4.78732582447E-01  3.53060879298E-01 -4.59453519445E-01
 198   9   6    7 N    -4.59453519445E-01  4.78732582447E-01  3.53060879298E-01
 199   9   7    7 N     3.12514398743E-01 -6.18138981086E-02 -4.05464805554E-02
 200   9   8    7 N    -1.25671703149E-01  2.12674175532E-02 -4.38186101891E-01
 201   9   9    7 N     2.12674175532E-02 -4.38186101891E-01 -1.25671703149E-01
 202   9  10    7 N    -3.74328296851E-01  1.87485601257E-01  1.46939120702E-01
 203   9  11    7 N     1.87485601257E-01  1.46939120702E-01 -3.74328296851E-01
 204   9  12    7 N    -4.05464805554E-02  3.12514398743E-01 -6.18138981086E-02
 205   9  13    7 N     4.05464805554E-02 -1.46939120702E-01 -2.12674175532E-02
 206   9  14    7 N     3.74328296851E-01  6.18138981086E-02 -4.78732582447E-01
 207   9  15    7 N     1.25671703149E-01 -3.53060879298E-01 -3.12514398743E-01
 208   9  16    7 N     4.59453519445E-01  4.38186101891E-01 -1.87485601257E-01
 209   9  17    7 N    -1.46939120702E-01 -2.12674175532E-02  4.05464805554E-02
 210   9  18    7 N    -2.12674175532E-02  4.05464805554E-02 -1.46939120702E-01
 211   9  19    7 N     4.38186101891E-01 -1.87485601257E-01  4.59453519445E-01
 212   9  20    7 N    -4.78732582447E-01  3.74328296851E-01  6.18138981086E-02
 213   9  21    7 N     6.18138981086E-02 -4.78732582447E-01  3.74328296851E-01
 214   9  22    7 N    -3.12514398743E-01  1.25671703149E-01 -3.53060879298E-01
 215   9  23    7 N    -3.53060879298E-01 -3.12514398743E-01  1.25671703149E-01
 216   9  24    7 N    -1.87485601257E-01  4.59453519445E-01  4.38186101891E-01

 217  10   1    7 N    -4.84510829102E-01 -4.58246989608E-01  4.62029937248E-01
 218  10   2    7 N    -4.20276926856E-01  5.34592336503E-02  3.79700627523E-02
 219  10   3    7 N    -1.54891708980E-02  4.46540766350E-01  2.62638394935E-02
 220  10   4    7 N    -7.97230731438E-02 -4.17530103915E-02  4.73736160507E-01
 221  10   5    7 N     4.62029937248E-01 -4.84510829102E-01 -4.58246989608E-01
 222  10   6    7 N    -4.58246989608E-01  4.62029937248E-01 -4.84510829102E-01
 223  10   7    7 N     4.73736160507E-01 -7.97230731438E-02 -4.17530103915E-02
 224  10   8    7 N     5.34592336503E-02  3.79700627523E-02 -4.20276926856E-01
 225  10   9    7 N     3.79700627523E-02 -4.20276926856E-01  5.34592336503E-02
 226  10  10    7 N     4.46540766350E-01  2.62638394935E-02 -1.54891708980E-02
 227  10  11    7 N     2.62638394935E-02 -1.54891708980E-02  4.46540766350E-01
 228  10  12    7 N    -4.17530103915E-02  4.73736160507E-01 -7.97230731438E-02
 229  10  13    7 N     4.17530103915E-02  1.54891708980E-02 -3.79700627523E-02
 230  10  14    7 N    -4.46540766350E-01  7.97230731438E-02 -4.62029937248E-01
 231  10  15    7 N    -5.34592336503E-02  4.84510829102E-01 -4.73736160507E-01
 232  10  16    7 N     4.58246989609E-01  4.20276926856E-01 -2.62638394935E-02
 233  10  17    7 N     1.54891708980E-02 -3.79700627523E-02  4.17530103915E-02
 234  10  18    7 N    -3.79700627523E-02  4.17530103915E-02  1.54891708980E-02
 235  10  19    7 N     4.20276926856E-01 -2.62638394935E-02  4.58246989609E-01
 236  10  20    7 N    -4.62029937248E-01 -4.46540766350E-01  7.97230731438E-02
 237  10  21    7 N     7.97230731438E-02 -4.62029937248E-01 -4.46540766350E-01
 238  10  22    7 N    -4.73736160507E-01 -5.34592336503E-02  4.84510829102E-01
 239  10  23    7 N     4.84510829102E-01 -4.73736160507E-01 -5.34592336503E-02
 240  10  24    7 N    -2.62638394935E-02  4.58246989609E-01  4.20276926856E-01

 241  11   1   27 CO   -1.86108915854E-02 -1.32414713129E-01  3.78268860933E-02
 242  11   2   27 CO    3.29758400778E-01 -5.64377776787E-02  4.62173113907E-01
 243  11   3   27 CO   -4.81389108415E-01 -4.43562222321E-01 -1.13803821544E-01
 244  11   4   27 CO    1.70241599222E-01 -3.67585286871E-01 -3.86196178456E-01
 245  11   5   27 CO    3.78268860933E-02 -1.86108915854E-02 -1.32414713129E-01
 246  11   6   27 CO   -1.32414713129E-01  3.78268860933E-02 -1.86108915854E-02
 247  11   7   27 CO   -3.86196178456E-01  1.70241599222E-01 -3.67585286871E-01
 248  11   8   27 CO   -5.64377776787E-02  4.62173113907E-01  3.29758400778E-01
 249  11   9   27 CO    4.62173113907E-01  3.29758400778E-01 -5.64377776787E-02
 250  11  10   27 CO   -4.43562222321E-01 -1.13803821544E-01 -4.81389108415E-01
 251  11  11   27 CO   -1.13803821544E-01 -4.81389108415E-01 -4.43562222321E-01
 252  11  12   27 CO   -3.67585286871E-01 -3.86196178456E-01  1.70241599222E-01
 253  11  13   27 CO    3.67585286871E-01  4.81389108415E-01 -4.62173113907E-01
 254  11  14   27 CO    4.43562222321E-01 -1.70241599222E-01 -3.78268860933E-02
 255  11  15   27 CO    5.64377776787E-02  1.86108915854E-02  3.86196178456E-01
 256  11  16   27 CO    1.32414713129E-01 -3.29758400778E-01  1.13803821544E-01
 257  11  17   27 CO    4.81389108415E-01 -4.62173113907E-01  3.67585286871E-01
 258  11  18   27 CO   -4.62173113907E-01  3.67585286871E-01  4.81389108415E-01
 259  11  19   27 CO   -3.29758400778E-01  1.13803821544E-01  1.32414713129E-01
 260  11  20   27 CO   -3.78268860933E-02  4.43562222321E-01 -1.70241599222E-01
 261  11  21   27 CO   -1.70241599222E-01 -3.78268860933E-02  4.43562222321E-01
 262  11  22   27 CO    3.86196178456E-01  5.64377776787E-02  1.86108915854E-02
 263  11  23   27 CO    1.86108915854E-02  3.86196178456E-01  5.64377776787E-02
 264  11  24   27 CO    1.13803821544E-01  1.32414713129E-01 -3.29758400778E-01

 265  12   1   17 CL   -7.43964968139E-02 -2.52045382938E-01  1.25476116045E-02
 266  12   2   17 CL    2.35407005457E-01 -8.69441084185E-02  4.87452388395E-01
 267  12   3   17 CL   -4.25603503186E-01 -4.13055891582E-01 -1.77648886124E-01
 268  12   4   17 CL    2.64592994543E-01 -2.47954617062E-01 -3.22351113876E-01
 269  12   5   17 CL    1.25476116045E-02 -7.43964968139E-02 -2.52045382938E-01
 270  12   6   17 CL   -2.52045382938E-01  1.25476116045E-02 -7.43964968139E-02
 271  12   7   17 CL   -3.22351113876E-01  2.64592994543E-01 -2.47954617062E-01
 272  12   8   17 CL   -8.69441084185E-02  4.87452388395E-01  2.35407005457E-01
 273  12   9   17 CL    4.87452388395E-01  2.35407005457E-01 -8.69441084185E-02
 274  12  10   17 CL   -4.13055891582E-01 -1.77648886124E-01 -4.25603503186E-01
 275  12  11   17 CL   -1.77648886124E-01 -4.25603503186E-01 -4.13055891582E-01
 276  12  12   17 CL   -2.47954617062E-01 -3.22351113876E-01  2.64592994543E-01
 277  12  13   17 CL    2.47954617062E-01  4.25603503186E-01 -4.87452388395E-01
 278  12  14   17 CL    4.13055891582E-01 -2.64592994543E-01 -1.25476116045E-02
 279  12  15   17 CL    8.69441084185E-02  7.43964968139E-02  3.22351113876E-01
 280  12  16   17 CL    2.52045382938E-01 -2.35407005457E-01  1.77648886124E-01
 281  12  17   17 CL    4.25603503186E-01 -4.87452388395E-01  2.47954617062E-01
 282  12  18   17 CL   -4.87452388395E-01  2.47954617062E-01  4.25603503186E-01
 283  12  19   17 CL   -2.35407005457E-01  1.77648886124E-01  2.52045382938E-01
 284  12  20   17 CL   -1.25476116045E-02  4.13055891582E-01 -2.64592994543E-01
 285  12  21   17 CL   -2.64592994543E-01 -1.25476116045E-02  4.13055891582E-01
 286  12  22   17 CL    3.22351113876E-01  8.69441084185E-02  7.43964968139E-02
 287  12  23   17 CL    7.43964968139E-02  3.22351113876E-01  8.69441084185E-02
 288  12  24   17 CL    1.77648886124E-01  2.52045382938E-01 -2.35407005457E-01

 289  13   1    6 C     2.50000000000E-01 -3.75000000000E-01  3.75000000000E-01
 290  13   2    6 C    -2.50000000000E-01 -1.25000000000E-01  1.25000000000E-01
 291  13   3    6 C     3.75000000000E-01  2.50000000000E-01 -3.75000000000E-01
 292  13   4    6 C    -3.75000000000E-01  3.75000000000E-01  2.50000000000E-01
 293  13   5    6 C     1.25000000000E-01 -2.50000000000E-01 -1.25000000000E-01
 294  13   6    6 C    -1.25000000000E-01  1.25000000000E-01 -2.50000000000E-01

 NUMBER OF SYMMETRY OPERATORS         :   24
 *******************************************************************************
 * GEOMETRY EDITING - INPUT COORDINATES ARE GIVEN IN ANGSTROM         
 *******************************************************************************

 GEOMETRY NOW FULLY CONSISTENT WITH THE GROUP

 GCALCO - MAX INDICES DIRECT LATTICE VECTOR    14    14    14
 NO.OF VECTORS CREATED 6999 STARS  122 RMAX   426.58159 BOHR

 GEOMETRY FOR WAVE FUNCTION - DIMENSIONALITY OF THE SYSTEM    3
 (NON PERIODIC DIRECTION: LATTICE PARAMETER FORMALLY SET TO 500)
 *******************************************************************************
 LATTICE PARAMETERS (ANGSTROMS AND DEGREES) - BOHR = 0.5291772083 ANGSTROM
 PRIMITIVE CELL - CENTRING CODE 6/0 VOLUME=  6850.065505 - DENSITY  1.169 g/cm^3
         A              B              C           ALPHA      BETA       GAMMA 
    20.72234366    20.72234366    20.72234366   109.471221 109.471221 109.471221
 *******************************************************************************
 ATOMS IN THE ASYMMETRIC UNIT   13 - ATOMS IN THE UNIT CELL:  294
     ATOM                 X/A                 Y/B                 Z/C    
 *******************************************************************************
      1 T   6 C     2.948639995503E-01 -4.473577766410E-01  4.440912723875E-01
      2 F   6 C    -3.914490490285E-01 -1.492272728372E-01  5.590872761252E-02
      3 F   6 C     2.051360004497E-01 -3.507727271628E-01  2.577782238087E-01
      4 F   6 C    -1.085509509715E-01 -5.264222335900E-02  2.422217761913E-01
      5 F   6 C     4.440912723875E-01  2.948639995503E-01 -4.473577766410E-01
      6 F   6 C    -4.473577766410E-01  4.440912723875E-01  2.948639995503E-01
      7 F   6 C     2.422217761913E-01 -1.085509509715E-01 -5.264222335900E-02
      8 F   6 C    -1.492272728372E-01  5.590872761252E-02 -3.914490490285E-01
      9 F   6 C     5.590872761252E-02 -3.914490490285E-01 -1.492272728372E-01
     10 F   6 C    -3.507727271628E-01  2.577782238087E-01  2.051360004497E-01
     11 F   6 C     2.577782238087E-01  2.051360004497E-01 -3.507727271628E-01
     12 F   6 C    -5.264222335900E-02  2.422217761913E-01 -1.085509509715E-01
     13 F   6 C     5.264222335900E-02 -2.051360004497E-01 -5.590872761252E-02
     14 F   6 C     3.507727271628E-01  1.085509509715E-01 -4.440912723875E-01
     15 F   6 C     1.492272728372E-01 -2.948639995503E-01 -2.422217761913E-01
     16 F   6 C     4.473577766410E-01  3.914490490285E-01 -2.577782238087E-01
     17 F   6 C    -2.051360004497E-01 -5.590872761252E-02  5.264222335900E-02
     18 F   6 C    -5.590872761252E-02  5.264222335900E-02 -2.051360004497E-01
     19 F   6 C     3.914490490285E-01 -2.577782238087E-01  4.473577766410E-01
     20 F   6 C    -4.440912723875E-01  3.507727271628E-01  1.085509509715E-01
     21 F   6 C     1.085509509715E-01 -4.440912723875E-01  3.507727271628E-01
     22 F   6 C    -2.422217761913E-01  1.492272728372E-01 -2.948639995503E-01
     23 F   6 C    -2.948639995503E-01 -2.422217761913E-01  1.492272728372E-01
     24 F   6 C    -2.577782238087E-01  4.473577766410E-01  3.914490490285E-01
     25 T   1 H     2.479518846534E-01 -4.635664326266E-01  4.582933232986E-01
     26 F   1 H    -4.218597559252E-01 -2.103414386452E-01  4.170667670140E-02
     27 F   1 H     2.520481153466E-01 -2.896585613548E-01  2.884816827200E-01
     28 F   1 H    -7.814024407480E-02 -3.643356737340E-02  2.115183172800E-01
     29 F   1 H     4.582933232986E-01  2.479518846534E-01 -4.635664326266E-01
     30 F   1 H    -4.635664326266E-01  4.582933232986E-01  2.479518846534E-01
     31 F   1 H     2.115183172800E-01 -7.814024407480E-02 -3.643356737340E-02
     32 F   1 H    -2.103414386452E-01  4.170667670140E-02 -4.218597559252E-01
     33 F   1 H     4.170667670140E-02 -4.218597559252E-01 -2.103414386452E-01
     34 F   1 H    -2.896585613548E-01  2.884816827200E-01  2.520481153466E-01
     35 F   1 H     2.884816827200E-01  2.520481153466E-01 -2.896585613548E-01
     36 F   1 H    -3.643356737340E-02  2.115183172800E-01 -7.814024407480E-02
     37 F   1 H     3.643356737340E-02 -2.520481153466E-01 -4.170667670140E-02
     38 F   1 H     2.896585613548E-01  7.814024407480E-02 -4.582933232986E-01
     39 F   1 H     2.103414386452E-01 -2.479518846534E-01 -2.115183172800E-01
     40 F   1 H     4.635664326266E-01  4.218597559252E-01 -2.884816827200E-01
     41 F   1 H    -2.520481153466E-01 -4.170667670140E-02  3.643356737340E-02
     42 F   1 H    -4.170667670140E-02  3.643356737340E-02 -2.520481153466E-01
     43 F   1 H     4.218597559252E-01 -2.884816827200E-01  4.635664326266E-01
     44 F   1 H    -4.582933232986E-01  2.896585613548E-01  7.814024407480E-02
     45 F   1 H     7.814024407480E-02 -4.582933232986E-01  2.896585613548E-01
     46 F   1 H    -2.115183172800E-01  2.103414386452E-01 -2.479518846534E-01
     47 F   1 H    -2.479518846534E-01 -2.115183172800E-01  2.103414386452E-01
     48 F   1 H    -2.884816827200E-01  4.635664326266E-01  4.218597559252E-01
     49 T   6 C     2.945963068910E-01 -4.186009244762E-01  3.915264017352E-01
     50 F   6 C    -3.101273262114E-01 -9.693009484420E-02  1.084735982648E-01
     51 F   6 C     2.054036931090E-01 -4.030699051558E-01  2.868027686328E-01
     52 F   6 C    -1.898726737886E-01 -8.139907552380E-02  2.131972313672E-01
     53 F   6 C     3.915264017352E-01  2.945963068910E-01 -4.186009244762E-01
     54 F   6 C    -4.186009244762E-01  3.915264017352E-01  2.945963068910E-01
     55 F   6 C     2.131972313672E-01 -1.898726737886E-01 -8.139907552380E-02
     56 F   6 C    -9.693009484420E-02  1.084735982648E-01 -3.101273262114E-01
     57 F   6 C     1.084735982648E-01 -3.101273262114E-01 -9.693009484420E-02
     58 F   6 C    -4.030699051558E-01  2.868027686328E-01  2.054036931090E-01
     59 F   6 C     2.868027686328E-01  2.054036931090E-01 -4.030699051558E-01
     60 F   6 C    -8.139907552380E-02  2.131972313672E-01 -1.898726737886E-01
     61 F   6 C     8.139907552380E-02 -2.054036931090E-01 -1.084735982648E-01
     62 F   6 C     4.030699051558E-01  1.898726737886E-01 -3.915264017352E-01
     63 F   6 C     9.693009484420E-02 -2.945963068910E-01 -2.131972313672E-01
     64 F   6 C     4.186009244762E-01  3.101273262114E-01 -2.868027686328E-01
     65 F   6 C    -2.054036931090E-01 -1.084735982648E-01  8.139907552380E-02
     66 F   6 C    -1.084735982648E-01  8.139907552380E-02 -2.054036931090E-01
     67 F   6 C     3.101273262114E-01 -2.868027686328E-01  4.186009244762E-01
     68 F   6 C    -3.915264017352E-01  4.030699051558E-01  1.898726737886E-01
     69 F   6 C     1.898726737886E-01 -3.915264017352E-01  4.030699051558E-01
     70 F   6 C    -2.131972313672E-01  9.693009484420E-02 -2.945963068910E-01
     71 F   6 C    -2.945963068910E-01 -2.131972313672E-01  9.693009484420E-02
     72 F   6 C    -2.868027686328E-01  4.186009244762E-01  3.101273262114E-01
     73 T   6 C     3.467262200702E-01 -4.212379360924E-01  3.623561698900E-01
     74 F   6 C    -2.835941059824E-01 -1.562994981980E-02  1.376438301100E-01
     75 F   6 C     1.532737799298E-01 -4.843700501802E-01  2.320358438374E-01
     76 F   6 C    -2.164058940176E-01 -7.876206390760E-02  2.679641561626E-01
     77 F   6 C     3.623561698900E-01  3.467262200702E-01 -4.212379360924E-01
     78 F   6 C    -4.212379360924E-01  3.623561698900E-01  3.467262200702E-01
     79 F   6 C     2.679641561626E-01 -2.164058940176E-01 -7.876206390760E-02
     80 F   6 C    -1.562994981980E-02  1.376438301100E-01 -2.835941059824E-01
     81 F   6 C     1.376438301100E-01 -2.835941059824E-01 -1.562994981980E-02
     82 F   6 C    -4.843700501802E-01  2.320358438374E-01  1.532737799298E-01
     83 F   6 C     2.320358438374E-01  1.532737799298E-01 -4.843700501802E-01
     84 F   6 C    -7.876206390760E-02  2.679641561626E-01 -2.164058940176E-01
     85 F   6 C     7.876206390760E-02 -1.532737799298E-01 -1.376438301100E-01
     86 F   6 C     4.843700501802E-01  2.164058940176E-01 -3.623561698900E-01
     87 F   6 C     1.562994981980E-02 -3.467262200702E-01 -2.679641561626E-01
     88 F   6 C     4.212379360924E-01  2.835941059824E-01 -2.320358438374E-01
     89 F   6 C    -1.532737799298E-01 -1.376438301100E-01  7.876206390760E-02
     90 F   6 C    -1.376438301100E-01  7.876206390760E-02 -1.532737799298E-01
     91 F   6 C     2.835941059824E-01 -2.320358438374E-01  4.212379360924E-01
     92 F   6 C    -3.623561698900E-01  4.843700501802E-01  2.164058940176E-01
     93 F   6 C     2.164058940176E-01 -3.623561698900E-01  4.843700501802E-01
     94 F   6 C    -2.679641561626E-01  1.562994981980E-02 -3.467262200702E-01
     95 F   6 C    -3.467262200702E-01 -2.679641561626E-01  1.562994981980E-02
     96 F   6 C    -2.320358438374E-01  4.212379360924E-01  2.835941059824E-01
     97 T   1 H     3.412812870011E-01 -4.141124952316E-01  3.112140724071E-01
     98 F   1 H    -2.253265676387E-01  3.006721459400E-02  1.887859275929E-01
     99 F   1 H     1.587187129989E-01  4.699327854060E-01  2.446062177673E-01
    100 F   1 H    -2.746734323613E-01 -8.588750476840E-02  2.553937822327E-01
    101 F   1 H     3.112140724071E-01  3.412812870011E-01 -4.141124952316E-01
    102 F   1 H    -4.141124952316E-01  3.112140724071E-01  3.412812870011E-01
    103 F   1 H     2.553937822327E-01 -2.746734323613E-01 -8.588750476840E-02
    104 F   1 H     3.006721459400E-02  1.887859275929E-01 -2.253265676387E-01
    105 F   1 H     1.887859275929E-01 -2.253265676387E-01  3.006721459400E-02
    106 F   1 H     4.699327854060E-01  2.446062177673E-01  1.587187129989E-01
    107 F   1 H     2.446062177673E-01  1.587187129989E-01  4.699327854060E-01
    108 F   1 H    -8.588750476840E-02  2.553937822327E-01 -2.746734323613E-01
    109 F   1 H     8.588750476840E-02 -1.587187129989E-01 -1.887859275929E-01
    110 F   1 H    -4.699327854060E-01  2.746734323613E-01 -3.112140724071E-01
    111 F   1 H    -3.006721459400E-02 -3.412812870011E-01 -2.553937822327E-01
    112 F   1 H     4.141124952316E-01  2.253265676387E-01 -2.446062177673E-01
    113 F   1 H    -1.587187129989E-01 -1.887859275929E-01  8.588750476840E-02
    114 F   1 H    -1.887859275929E-01  8.588750476840E-02 -1.587187129989E-01
    115 F   1 H     2.253265676387E-01 -2.446062177673E-01  4.141124952316E-01
    116 F   1 H    -3.112140724071E-01 -4.699327854060E-01  2.746734323613E-01
    117 F   1 H     2.746734323613E-01 -3.112140724071E-01 -4.699327854060E-01
    118 F   1 H    -2.553937822327E-01 -3.006721459400E-02 -3.412812870011E-01
    119 F   1 H    -3.412812870011E-01 -2.553937822327E-01 -3.006721459400E-02
    120 F   1 H    -2.446062177673E-01  4.141124952316E-01  2.253265676387E-01
    121 T   7 N     4.058649873364E-01 -4.327336254474E-01  3.962929590636E-01
    122 F   7 N    -3.290265845110E-01  9.572028272800E-03  1.037070409364E-01
    123 F   7 N     9.413501266360E-02  4.904279717272E-01  1.614013872162E-01
    124 F   7 N    -1.709734154890E-01 -6.726637455260E-02  3.385986127838E-01
    125 F   7 N     3.962929590636E-01  4.058649873364E-01 -4.327336254474E-01
    126 F   7 N    -4.327336254474E-01  3.962929590636E-01  4.058649873364E-01
    127 F   7 N     3.385986127838E-01 -1.709734154890E-01 -6.726637455260E-02
    128 F   7 N     9.572028272800E-03  1.037070409364E-01 -3.290265845110E-01
    129 F   7 N     1.037070409364E-01 -3.290265845110E-01  9.572028272800E-03
    130 F   7 N     4.904279717272E-01  1.614013872162E-01  9.413501266360E-02
    131 F   7 N     1.614013872162E-01  9.413501266360E-02  4.904279717272E-01
    132 F   7 N    -6.726637455260E-02  3.385986127838E-01 -1.709734154890E-01
    133 F   7 N     6.726637455260E-02 -9.413501266360E-02 -1.037070409364E-01
    134 F   7 N    -4.904279717272E-01  1.709734154890E-01 -3.962929590636E-01
    135 F   7 N    -9.572028272800E-03 -4.058649873364E-01 -3.385986127838E-01
    136 F   7 N     4.327336254474E-01  3.290265845110E-01 -1.614013872162E-01
    137 F   7 N    -9.413501266360E-02 -1.037070409364E-01  6.726637455260E-02
    138 F   7 N    -1.037070409364E-01  6.726637455260E-02 -9.413501266360E-02
    139 F   7 N     3.290265845110E-01 -1.614013872162E-01  4.327336254474E-01
    140 F   7 N    -3.962929590636E-01 -4.904279717272E-01  1.709734154890E-01
    141 F   7 N     1.709734154890E-01 -3.962929590636E-01 -4.904279717272E-01
    142 F   7 N    -3.385986127838E-01 -9.572028272800E-03 -4.058649873364E-01
    143 F   7 N    -4.058649873364E-01 -3.385986127838E-01 -9.572028272800E-03
    144 F   7 N    -1.614013872162E-01  4.327336254474E-01  3.290265845110E-01
    145 T   6 C     4.106826270170E-01 -4.414205320824E-01  4.596078898006E-01
    146 F   6 C    -4.010284218830E-01 -4.892526278360E-02  4.039211019940E-02
    147 F   6 C     8.931737298300E-02 -4.510747372164E-01  1.478968409006E-01
    148 F   6 C    -9.897157811700E-02 -5.857946791760E-02  3.521031590994E-01
    149 F   6 C     4.596078898006E-01  4.106826270170E-01 -4.414205320824E-01
    150 F   6 C    -4.414205320824E-01  4.596078898006E-01  4.106826270170E-01
    151 F   6 C     3.521031590994E-01 -9.897157811700E-02 -5.857946791760E-02
    152 F   6 C    -4.892526278360E-02  4.039211019940E-02 -4.010284218830E-01
    153 F   6 C     4.039211019940E-02 -4.010284218830E-01 -4.892526278360E-02
    154 F   6 C    -4.510747372164E-01  1.478968409006E-01  8.931737298300E-02
    155 F   6 C     1.478968409006E-01  8.931737298300E-02 -4.510747372164E-01
    156 F   6 C    -5.857946791760E-02  3.521031590994E-01 -9.897157811700E-02
    157 F   6 C     5.857946791760E-02 -8.931737298300E-02 -4.039211019940E-02
    158 F   6 C     4.510747372164E-01  9.897157811700E-02 -4.596078898006E-01
    159 F   6 C     4.892526278360E-02 -4.106826270170E-01 -3.521031590994E-01
    160 F   6 C     4.414205320824E-01  4.010284218830E-01 -1.478968409006E-01
    161 F   6 C    -8.931737298300E-02 -4.039211019940E-02  5.857946791760E-02
    162 F   6 C    -4.039211019940E-02  5.857946791760E-02 -8.931737298300E-02
    163 F   6 C     4.010284218830E-01 -1.478968409006E-01  4.414205320824E-01
    164 F   6 C    -4.596078898006E-01  4.510747372164E-01  9.897157811700E-02
    165 F   6 C     9.897157811700E-02 -4.596078898006E-01  4.510747372164E-01
    166 F   6 C    -3.521031590994E-01  4.892526278360E-02 -4.106826270170E-01
    167 F   6 C    -4.106826270170E-01 -3.521031590994E-01  4.892526278360E-02
    168 F   6 C    -1.478968409006E-01  4.414205320824E-01  4.010284218830E-01
    169 T   6 C     4.735995407937E-01 -4.498299734731E-01  4.987890835636E-01
    170 F   6 C    -4.486190570367E-01 -2.518954276990E-02  1.210916436400E-03
    171 F   6 C     2.640045920630E-02 -4.748104572301E-01  7.657048573320E-02
    172 F   6 C    -5.138094296330E-02 -5.017002652690E-02  4.234295142668E-01
    173 F   6 C     4.987890835636E-01  4.735995407937E-01 -4.498299734731E-01
    174 F   6 C    -4.498299734731E-01  4.987890835636E-01  4.735995407937E-01
    175 F   6 C     4.234295142668E-01 -5.138094296330E-02 -5.017002652690E-02
    176 F   6 C    -2.518954276990E-02  1.210916436400E-03 -4.486190570367E-01
    177 F   6 C     1.210916436400E-03 -4.486190570367E-01 -2.518954276990E-02
    178 F   6 C    -4.748104572301E-01  7.657048573320E-02  2.640045920630E-02
    179 F   6 C     7.657048573320E-02  2.640045920630E-02 -4.748104572301E-01
    180 F   6 C    -5.017002652690E-02  4.234295142668E-01 -5.138094296330E-02
    181 F   6 C     5.017002652690E-02 -2.640045920630E-02 -1.210916436400E-03
    182 F   6 C     4.748104572301E-01  5.138094296330E-02 -4.987890835636E-01
    183 F   6 C     2.518954276990E-02 -4.735995407937E-01 -4.234295142668E-01
    184 F   6 C     4.498299734731E-01  4.486190570367E-01 -7.657048573320E-02
    185 F   6 C    -2.640045920630E-02 -1.210916436400E-03  5.017002652690E-02
    186 F   6 C    -1.210916436400E-03  5.017002652690E-02 -2.640045920630E-02
    187 F   6 C     4.486190570367E-01 -7.657048573320E-02  4.498299734731E-01
    188 F   6 C    -4.987890835636E-01  4.748104572301E-01  5.138094296330E-02
    189 F   6 C     5.138094296330E-02 -4.987890835636E-01  4.748104572301E-01
    190 F   6 C    -4.234295142668E-01  2.518954276990E-02 -4.735995407937E-01
    191 F   6 C    -4.735995407937E-01 -4.234295142668E-01  2.518954276990E-02
    192 F   6 C    -7.657048573320E-02  4.498299734731E-01  4.486190570367E-01
    193 T   7 N     3.530608792982E-01 -4.594535194446E-01  4.787325824468E-01
    194 F   7 N    -4.381861018914E-01 -1.256717031486E-01  2.126741755320E-02
    195 F   7 N     1.469391207018E-01 -3.743282968514E-01  1.874856012572E-01
    196 F   7 N    -6.181389810860E-02 -4.054648055540E-02  3.125143987428E-01
    197 F   7 N     4.787325824468E-01  3.530608792982E-01 -4.594535194446E-01
    198 F   7 N    -4.594535194446E-01  4.787325824468E-01  3.530608792982E-01
    199 F   7 N     3.125143987428E-01 -6.181389810860E-02 -4.054648055540E-02
    200 F   7 N    -1.256717031486E-01  2.126741755320E-02 -4.381861018914E-01
    201 F   7 N     2.126741755320E-02 -4.381861018914E-01 -1.256717031486E-01
    202 F   7 N    -3.743282968514E-01  1.874856012572E-01  1.469391207018E-01
    203 F   7 N     1.874856012572E-01  1.469391207018E-01 -3.743282968514E-01
    204 F   7 N    -4.054648055540E-02  3.125143987428E-01 -6.181389810860E-02
    205 F   7 N     4.054648055540E-02 -1.469391207018E-01 -2.126741755320E-02
    206 F   7 N     3.743282968514E-01  6.181389810860E-02 -4.787325824468E-01
    207 F   7 N     1.256717031486E-01 -3.530608792982E-01 -3.125143987428E-01
    208 F   7 N     4.594535194446E-01  4.381861018914E-01 -1.874856012572E-01
    209 F   7 N    -1.469391207018E-01 -2.126741755320E-02  4.054648055540E-02
    210 F   7 N    -2.126741755320E-02  4.054648055540E-02 -1.469391207018E-01
    211 F   7 N     4.381861018914E-01 -1.874856012572E-01  4.594535194446E-01
    212 F   7 N    -4.787325824468E-01  3.743282968514E-01  6.181389810860E-02
    213 F   7 N     6.181389810860E-02 -4.787325824468E-01  3.743282968514E-01
    214 F   7 N    -3.125143987428E-01  1.256717031486E-01 -3.530608792982E-01
    215 F   7 N    -3.530608792982E-01 -3.125143987428E-01  1.256717031486E-01
    216 F   7 N    -1.874856012572E-01  4.594535194446E-01  4.381861018914E-01
    217 T   7 N    -4.845108291020E-01 -4.582469896085E-01  4.620299372477E-01
    218 F   7 N    -4.202769268562E-01  5.345923365030E-02  3.797006275230E-02
    219 F   7 N    -1.548917089800E-02  4.465407663497E-01  2.626383949350E-02
    220 F   7 N    -7.972307314380E-02 -4.175301039150E-02  4.737361605065E-01
    221 F   7 N     4.620299372477E-01 -4.845108291020E-01 -4.582469896085E-01
    222 F   7 N    -4.582469896085E-01  4.620299372477E-01 -4.845108291020E-01
    223 F   7 N     4.737361605065E-01 -7.972307314380E-02 -4.175301039150E-02
    224 F   7 N     5.345923365030E-02  3.797006275230E-02 -4.202769268562E-01
    225 F   7 N     3.797006275230E-02 -4.202769268562E-01  5.345923365030E-02
    226 F   7 N     4.465407663497E-01  2.626383949350E-02 -1.548917089800E-02
    227 F   7 N     2.626383949350E-02 -1.548917089800E-02  4.465407663497E-01
    228 F   7 N    -4.175301039150E-02  4.737361605065E-01 -7.972307314380E-02
    229 F   7 N     4.175301039150E-02  1.548917089800E-02 -3.797006275230E-02
    230 F   7 N    -4.465407663497E-01  7.972307314380E-02 -4.620299372477E-01
    231 F   7 N    -5.345923365030E-02  4.845108291020E-01 -4.737361605065E-01
    232 F   7 N     4.582469896085E-01  4.202769268562E-01 -2.626383949350E-02
    233 F   7 N     1.548917089800E-02 -3.797006275230E-02  4.175301039150E-02
    234 F   7 N    -3.797006275230E-02  4.175301039150E-02  1.548917089800E-02
    235 F   7 N     4.202769268562E-01 -2.626383949350E-02  4.582469896085E-01
    236 F   7 N    -4.620299372477E-01 -4.465407663497E-01  7.972307314380E-02
    237 F   7 N     7.972307314380E-02 -4.620299372477E-01 -4.465407663497E-01
    238 F   7 N    -4.737361605065E-01 -5.345923365030E-02  4.845108291020E-01
    239 F   7 N     4.845108291020E-01 -4.737361605065E-01 -5.345923365030E-02
    240 F   7 N    -2.626383949350E-02  4.582469896085E-01  4.202769268562E-01
    241 T  27 CO   -1.861089158545E-02 -1.324147131291E-01  3.782688609326E-02
    242 F  27 CO    3.297584007777E-01 -5.643777767871E-02  4.621731139067E-01
    243 F  27 CO   -4.813891084146E-01 -4.435622223213E-01 -1.138038215436E-01
    244 F  27 CO    1.702415992223E-01 -3.675852868709E-01 -3.861961784564E-01
    245 F  27 CO    3.782688609326E-02 -1.861089158545E-02 -1.324147131291E-01
    246 F  27 CO   -1.324147131291E-01  3.782688609326E-02 -1.861089158545E-02
    247 F  27 CO   -3.861961784564E-01  1.702415992223E-01 -3.675852868709E-01
    248 F  27 CO   -5.643777767871E-02  4.621731139067E-01  3.297584007777E-01
    249 F  27 CO    4.621731139067E-01  3.297584007777E-01 -5.643777767871E-02
    250 F  27 CO   -4.435622223213E-01 -1.138038215436E-01 -4.813891084145E-01
    251 F  27 CO   -1.138038215436E-01 -4.813891084145E-01 -4.435622223213E-01
    252 F  27 CO   -3.675852868710E-01 -3.861961784564E-01  1.702415992223E-01
    253 F  27 CO    3.675852868710E-01  4.813891084146E-01 -4.621731139067E-01
    254 F  27 CO    4.435622223213E-01 -1.702415992223E-01 -3.782688609326E-02
    255 F  27 CO    5.643777767871E-02  1.861089158545E-02  3.861961784564E-01
    256 F  27 CO    1.324147131291E-01 -3.297584007777E-01  1.138038215436E-01
    257 F  27 CO    4.813891084146E-01 -4.621731139067E-01  3.675852868710E-01
    258 F  27 CO   -4.621731139067E-01  3.675852868710E-01  4.813891084146E-01
    259 F  27 CO   -3.297584007777E-01  1.138038215436E-01  1.324147131291E-01
    260 F  27 CO   -3.782688609326E-02  4.435622223213E-01 -1.702415992223E-01
    261 F  27 CO   -1.702415992223E-01 -3.782688609326E-02  4.435622223213E-01
    262 F  27 CO    3.861961784564E-01  5.643777767871E-02  1.861089158545E-02
    263 F  27 CO    1.861089158545E-02  3.861961784564E-01  5.643777767871E-02
    264 F  27 CO    1.138038215436E-01  1.324147131291E-01 -3.297584007777E-01
    265 T  17 CL   -7.439649681394E-02 -2.520453829383E-01  1.254761160453E-02
    266 F  17 CL    2.354070054571E-01 -8.694410841847E-02  4.874523883955E-01
    267 F  17 CL   -4.256035031861E-01 -4.130558915815E-01 -1.776488861244E-01
    268 F  17 CL    2.645929945429E-01 -2.479546170617E-01 -3.223511138756E-01
    269 F  17 CL    1.254761160453E-02 -7.439649681394E-02 -2.520453829383E-01
    270 F  17 CL   -2.520453829383E-01  1.254761160453E-02 -7.439649681394E-02
    271 F  17 CL   -3.223511138756E-01  2.645929945429E-01 -2.479546170617E-01
    272 F  17 CL   -8.694410841847E-02  4.874523883955E-01  2.354070054571E-01
    273 F  17 CL    4.874523883955E-01  2.354070054571E-01 -8.694410841847E-02
    274 F  17 CL   -4.130558915815E-01 -1.776488861244E-01 -4.256035031861E-01
    275 F  17 CL   -1.776488861244E-01 -4.256035031861E-01 -4.130558915815E-01
    276 F  17 CL   -2.479546170617E-01 -3.223511138756E-01  2.645929945429E-01
    277 F  17 CL    2.479546170617E-01  4.256035031861E-01 -4.874523883955E-01
    278 F  17 CL    4.130558915815E-01 -2.645929945429E-01 -1.254761160453E-02
    279 F  17 CL    8.694410841847E-02  7.439649681394E-02  3.223511138756E-01
    280 F  17 CL    2.520453829383E-01 -2.354070054571E-01  1.776488861244E-01
    281 F  17 CL    4.256035031861E-01 -4.874523883955E-01  2.479546170617E-01
    282 F  17 CL   -4.874523883955E-01  2.479546170617E-01  4.256035031861E-01
    283 F  17 CL   -2.354070054571E-01  1.776488861244E-01  2.520453829383E-01
    284 F  17 CL   -1.254761160453E-02  4.130558915815E-01 -2.645929945429E-01
    285 F  17 CL   -2.645929945429E-01 -1.254761160453E-02  4.130558915815E-01
    286 F  17 CL    3.223511138756E-01  8.694410841847E-02  7.439649681394E-02
    287 F  17 CL    7.439649681394E-02  3.223511138756E-01  8.694410841847E-02
    288 F  17 CL    1.776488861244E-01  2.520453829383E-01 -2.354070054571E-01
    289 T   6 C     2.500000000000E-01 -3.750000000000E-01  3.750000000000E-01
    290 F   6 C    -2.500000000000E-01 -1.250000000000E-01  1.250000000000E-01
    291 F   6 C     3.750000000000E-01  2.500000000000E-01 -3.750000000000E-01
    292 F   6 C    -3.750000000000E-01  3.750000000000E-01  2.500000000000E-01
    293 F   6 C     1.250000000000E-01 -2.500000000000E-01 -1.250000000000E-01
    294 F   6 C    -1.250000000000E-01  1.250000000000E-01 -2.500000000000E-01

 TRANSFORMATION MATRIX PRIMITIVE-CRYSTALLOGRAPHIC CELL
  0.0000  1.0000  1.0000  1.0000  0.0000  1.0000  1.0000  1.0000  0.0000

 *******************************************************************************
 CRYSTALLOGRAPHIC CELL (VOLUME=      13700.13101060)
         A              B              C           ALPHA      BETA       GAMMA 
    23.92810138    23.92810138    23.92810138    90.000000  90.000000  90.000000

 COORDINATES IN THE CRYSTALLOGRAPHIC CELL
     ATOM                 X/A                 Y/B                 Z/C    
 *******************************************************************************
      1 T   6 C     3.509347480981E-01  9.315652428938E-02  2.017074752609E-01
      2 F   6 C     1.490652519019E-01 -9.315652428938E-02 -2.982925247391E-01
      3 F   6 C     3.509347480981E-01 -9.315652428938E-02  2.982925247391E-01
      4 F   6 C     1.490652519019E-01  9.315652428938E-02 -2.017074752609E-01
      5 F   6 C     2.017074752609E-01  3.509347480981E-01  9.315652428938E-02
      6 F   6 C     9.315652428938E-02  2.017074752609E-01  3.509347480981E-01
      7 F   6 C    -2.017074752609E-01  1.490652519019E-01  9.315652428938E-02
      8 F   6 C    -9.315652428938E-02 -2.982925247391E-01  1.490652519019E-01
      9 F   6 C    -2.982925247391E-01  1.490652519019E-01 -9.315652428938E-02
     10 F   6 C    -9.315652428938E-02  2.982925247391E-01  3.509347480981E-01
     11 F   6 C     2.982925247391E-01  3.509347480981E-01 -9.315652428938E-02
     12 F   6 C     9.315652428938E-02 -2.017074752609E-01  1.490652519019E-01
     13 F   6 C    -1.568434757106E-01  1.009347480981E-01 -4.829252473910E-02
     14 F   6 C     1.568434757106E-01  3.990652519019E-01 -4.829252473910E-02
     15 F   6 C    -3.431565242894E-01  1.009347480981E-01  4.829252473910E-02
     16 F   6 C    -1.568434757106E-01 -1.009347480981E-01 -4.517074752609E-01
     17 F   6 C     1.009347480981E-01 -4.829252473910E-02 -1.568434757106E-01
     18 F   6 C    -4.829252473910E-02 -1.568434757106E-01  1.009347480981E-01
     19 F   6 C    -1.009347480981E-01 -4.517074752609E-01 -1.568434757106E-01
     20 F   6 C    -4.829252473910E-02  1.568434757106E-01  3.990652519019E-01
     21 F   6 C     3.990652519019E-01 -4.829252473910E-02  1.568434757106E-01
     22 F   6 C     4.829252473910E-02 -3.431565242894E-01  1.009347480981E-01
     23 F   6 C     1.009347480981E-01  4.829252473910E-02 -3.431565242894E-01
     24 F   6 C    -4.517074752609E-01 -1.568434757106E-01 -1.009347480981E-01
     25 T   1 H     3.733875030093E-01  8.490582028930E-02  1.630460643641E-01
     26 F   1 H     1.266124969907E-01 -8.490582028930E-02 -3.369539356359E-01
     27 F   1 H    -1.266124969907E-01  4.150941797107E-01 -1.630460643641E-01
     28 F   1 H     1.266124969907E-01  8.490582028930E-02 -1.630460643641E-01
     29 F   1 H     1.630460643641E-01  3.733875030093E-01  8.490582028930E-02
     30 F   1 H     8.490582028930E-02  1.630460643641E-01  3.733875030093E-01
     31 F   1 H    -1.630460643641E-01  1.266124969907E-01  8.490582028930E-02
     32 F   1 H    -8.490582028930E-02 -3.369539356359E-01  1.266124969907E-01
     33 F   1 H    -3.369539356359E-01  1.266124969907E-01 -8.490582028930E-02
     34 F   1 H     4.150941797107E-01 -1.630460643641E-01 -1.266124969907E-01
     35 F   1 H    -1.630460643641E-01 -1.266124969907E-01  4.150941797107E-01
     36 F   1 H     8.490582028930E-02 -1.630460643641E-01  1.266124969907E-01
     37 F   1 H    -1.650941797107E-01  1.233875030093E-01 -8.695393563590E-02
     38 F   1 H     1.650941797107E-01  3.766124969907E-01 -8.695393563590E-02
     39 F   1 H    -3.349058202893E-01  1.233875030093E-01  8.695393563590E-02
     40 F   1 H    -1.650941797107E-01 -1.233875030093E-01 -4.130460643641E-01
     41 F   1 H     1.233875030093E-01 -8.695393563590E-02 -1.650941797107E-01
     42 F   1 H    -8.695393563590E-02 -1.650941797107E-01  1.233875030093E-01
     43 F   1 H    -1.233875030093E-01 -4.130460643641E-01 -1.650941797107E-01
     44 F   1 H    -8.695393563590E-02  1.650941797107E-01  3.766124969907E-01
     45 F   1 H     3.766124969907E-01 -8.695393563590E-02  1.650941797107E-01
     46 F   1 H     8.695393563590E-02 -3.349058202893E-01  1.233875030093E-01
     47 F   1 H     1.233875030093E-01  8.695393563590E-02 -3.349058202893E-01
     48 F   1 H    -4.130460643641E-01 -1.650941797107E-01 -1.233875030093E-01
     49 T   6 C     3.391645851840E-01  5.236181655121E-02  2.422344903398E-01
     50 F   6 C     1.608354148160E-01 -5.236181655121E-02 -2.577655096602E-01
     51 F   6 C     3.391645851840E-01 -5.236181655121E-02  2.577655096602E-01
     52 F   6 C     1.608354148160E-01  5.236181655121E-02 -2.422344903398E-01
     53 F   6 C     2.422344903398E-01  3.391645851840E-01  5.236181655121E-02
     54 F   6 C     5.236181655121E-02  2.422344903398E-01  3.391645851840E-01
     55 F   6 C    -2.422344903398E-01  1.608354148160E-01  5.236181655121E-02
     56 F   6 C    -5.236181655121E-02 -2.577655096602E-01  1.608354148160E-01
     57 F   6 C    -2.577655096602E-01  1.608354148160E-01 -5.236181655121E-02
     58 F   6 C    -5.236181655121E-02  2.577655096602E-01  3.391645851840E-01
     59 F   6 C     2.577655096602E-01  3.391645851840E-01 -5.236181655121E-02
     60 F   6 C     5.236181655121E-02 -2.422344903398E-01  1.608354148160E-01
     61 F   6 C    -1.976381834488E-01  8.916458518400E-02 -7.765509660200E-03
     62 F   6 C     1.976381834488E-01  4.108354148160E-01 -7.765509660200E-03
     63 F   6 C    -3.023618165512E-01  8.916458518400E-02  7.765509660200E-03
     64 F   6 C     3.023618165512E-01  4.108354148160E-01  7.765509660200E-03
     65 F   6 C     8.916458518400E-02 -7.765509660200E-03 -1.976381834488E-01
     66 F   6 C    -7.765509660200E-03 -1.976381834488E-01  8.916458518400E-02
     67 F   6 C     4.108354148160E-01  7.765509660200E-03  3.023618165512E-01
     68 F   6 C    -7.765509660200E-03  1.976381834488E-01  4.108354148160E-01
     69 F   6 C     4.108354148160E-01 -7.765509660200E-03  1.976381834488E-01
     70 F   6 C     7.765509660200E-03 -3.023618165512E-01  8.916458518400E-02
     71 F   6 C     8.916458518400E-02  7.765509660200E-03 -3.023618165512E-01
     72 F   6 C     7.765509660200E-03  3.023618165512E-01  4.108354148160E-01
     73 T   6 C     2.971960068637E-01  6.516016302631E-02  2.815660570439E-01
     74 F   6 C     2.028039931363E-01 -6.516016302631E-02 -2.184339429561E-01
     75 F   6 C     2.971960068637E-01 -6.516016302631E-02  2.184339429561E-01
     76 F   6 C     2.028039931363E-01  6.516016302631E-02 -2.815660570439E-01
     77 F   6 C     2.815660570439E-01  2.971960068637E-01  6.516016302631E-02
     78 F   6 C     6.516016302631E-02  2.815660570439E-01  2.971960068637E-01
     79 F   6 C    -2.815660570439E-01  2.028039931363E-01  6.516016302631E-02
     80 F   6 C    -6.516016302631E-02 -2.184339429561E-01  2.028039931363E-01
     81 F   6 C    -2.184339429561E-01  2.028039931363E-01 -6.516016302631E-02
     82 F   6 C    -6.516016302631E-02  2.184339429561E-01  2.971960068637E-01
     83 F   6 C     2.184339429561E-01  2.971960068637E-01 -6.516016302631E-02
     84 F   6 C     6.516016302631E-02 -2.815660570439E-01  2.028039931363E-01
     85 F   6 C    -1.848398369737E-01  4.719600686370E-02  3.156605704390E-02
     86 F   6 C     1.848398369737E-01  4.528039931363E-01  3.156605704390E-02
     87 F   6 C    -3.151601630263E-01  4.719600686370E-02 -3.156605704390E-02
     88 F   6 C    -1.848398369737E-01 -4.719600686370E-02  4.684339429561E-01
     89 F   6 C     4.719600686370E-02  3.156605704390E-02 -1.848398369737E-01
     90 F   6 C     3.156605704390E-02 -1.848398369737E-01  4.719600686370E-02
     91 F   6 C    -4.719600686370E-02  4.684339429561E-01 -1.848398369737E-01
     92 F   6 C     3.156605704390E-02  1.848398369737E-01  4.528039931363E-01
     93 F   6 C     4.528039931363E-01  3.156605704390E-02  1.848398369737E-01
     94 F   6 C    -3.156605704390E-02 -3.151601630263E-01  4.719600686370E-02
     95 F   6 C     4.719600686370E-02 -3.156605704390E-02 -3.151601630263E-01
     96 F   6 C     4.684339429561E-01 -1.848398369737E-01 -4.719600686370E-02
     97 T   1 H     2.779101450872E-01  3.330392731993E-02  3.079773596812E-01
     98 F   1 H     2.220898549128E-01 -3.330392731993E-02 -1.920226403188E-01
     99 F   1 H     2.779101450872E-01 -3.330392731993E-02  1.920226403188E-01
    100 F   1 H     2.220898549128E-01  3.330392731993E-02 -3.079773596812E-01
    101 F   1 H     3.079773596812E-01  2.779101450872E-01  3.330392731993E-02
    102 F   1 H     3.330392731993E-02  3.079773596812E-01  2.779101450872E-01
    103 F   1 H    -3.079773596812E-01  2.220898549128E-01  3.330392731993E-02
    104 F   1 H    -3.330392731993E-02 -1.920226403188E-01  2.220898549128E-01
    105 F   1 H    -1.920226403188E-01  2.220898549128E-01 -3.330392731993E-02
    106 F   1 H    -3.330392731993E-02  1.920226403188E-01  2.779101450872E-01
    107 F   1 H     1.920226403188E-01  2.779101450872E-01 -3.330392731993E-02
    108 F   1 H     3.330392731993E-02 -3.079773596812E-01  2.220898549128E-01
    109 F   1 H    -2.166960726801E-01  2.791014508720E-02  5.797735968120E-02
    110 F   1 H     2.166960726801E-01  4.720898549128E-01  5.797735968120E-02
    111 F   1 H    -2.833039273199E-01  2.791014508720E-02 -5.797735968120E-02
    112 F   1 H    -2.166960726801E-01 -2.791014508720E-02  4.420226403188E-01
    113 F   1 H     2.791014508720E-02  5.797735968120E-02 -2.166960726801E-01
    114 F   1 H     5.797735968120E-02 -2.166960726801E-01  2.791014508720E-02
    115 F   1 H    -2.791014508720E-02  4.420226403188E-01 -2.166960726801E-01
    116 F   1 H     5.797735968120E-02  2.166960726801E-01  4.720898549128E-01
    117 F   1 H     4.720898549128E-01  5.797735968120E-02  2.166960726801E-01
    118 F   1 H    -5.797735968120E-02 -2.833039273199E-01  2.791014508720E-02
    119 F   1 H     2.791014508720E-02 -5.797735968120E-02 -2.833039273199E-01
    120 F   1 H     4.420226403188E-01 -2.166960726801E-01 -2.791014508720E-02
    121 T   7 N     2.788471731399E-01  1.174457859237E-01  2.884192014127E-01
    122 F   7 N     2.211528268601E-01 -1.174457859237E-01 -2.115807985873E-01
    123 F   7 N     2.788471731399E-01 -1.174457859237E-01  2.115807985873E-01
    124 F   7 N     2.211528268601E-01  1.174457859237E-01 -2.884192014127E-01
    125 F   7 N     2.884192014127E-01  2.788471731399E-01  1.174457859237E-01
    126 F   7 N     1.174457859237E-01  2.884192014127E-01  2.788471731399E-01
    127 F   7 N    -2.884192014127E-01  2.211528268601E-01  1.174457859237E-01
    128 F   7 N    -1.174457859237E-01 -2.115807985873E-01  2.211528268601E-01
    129 F   7 N    -2.115807985873E-01  2.211528268601E-01 -1.174457859237E-01
    130 F   7 N    -1.174457859237E-01  2.115807985873E-01  2.788471731399E-01
    131 F   7 N     2.115807985873E-01  2.788471731399E-01 -1.174457859237E-01
    132 F   7 N     1.174457859237E-01 -2.884192014127E-01  2.211528268601E-01
    133 F   7 N    -1.325542140763E-01  2.884717313990E-02  3.841920141270E-02
    134 F   7 N     1.325542140763E-01  4.711528268601E-01  3.841920141270E-02
    135 F   7 N    -3.674457859237E-01  2.884717313990E-02 -3.841920141270E-02
    136 F   7 N    -1.325542140763E-01 -2.884717313990E-02  4.615807985873E-01
    137 F   7 N     2.884717313990E-02  3.841920141270E-02 -1.325542140763E-01
    138 F   7 N     3.841920141270E-02 -1.325542140763E-01  2.884717313990E-02
    139 F   7 N    -2.884717313990E-02  4.615807985873E-01 -1.325542140763E-01
    140 F   7 N     3.841920141270E-02  1.325542140763E-01  4.711528268601E-01
    141 F   7 N     4.711528268601E-01  3.841920141270E-02  1.325542140763E-01
    142 F   7 N    -3.841920141270E-02 -3.674457859237E-01  2.884717313990E-02
    143 F   7 N     2.884717313990E-02 -3.841920141270E-02 -3.674457859237E-01
    144 F   7 N     4.615807985873E-01 -1.325542140763E-01 -2.884717313990E-02
    145 T   6 C     3.037523653506E-01  1.558555244500E-01  2.548271025670E-01
    146 F   6 C     1.962476346494E-01 -1.558555244500E-01 -2.451728974330E-01
    147 F   6 C     3.037523653506E-01 -1.558555244500E-01  2.451728974330E-01
    148 F   6 C     1.962476346494E-01  1.558555244500E-01 -2.548271025670E-01
    149 F   6 C     2.548271025670E-01  3.037523653506E-01  1.558555244500E-01
    150 F   6 C     1.558555244500E-01  2.548271025670E-01  3.037523653506E-01
    151 F   6 C    -2.548271025670E-01  1.962476346494E-01  1.558555244500E-01
    152 F   6 C    -1.558555244500E-01 -2.451728974330E-01  1.962476346494E-01
    153 F   6 C    -2.451728974330E-01  1.962476346494E-01 -1.558555244500E-01
    154 F   6 C    -1.558555244500E-01  2.451728974330E-01  3.037523653506E-01
    155 F   6 C     2.451728974330E-01  3.037523653506E-01 -1.558555244500E-01
    156 F   6 C     1.558555244500E-01 -2.548271025670E-01  1.962476346494E-01
    157 F   6 C    -9.414447555000E-02  5.375236535060E-02  4.827102567000E-03
    158 F   6 C     9.414447555000E-02  4.462476346494E-01  4.827102567000E-03
    159 F   6 C    -4.058555244500E-01  5.375236535060E-02 -4.827102567000E-03
    160 F   6 C    -9.414447555000E-02 -5.375236535060E-02  4.951728974330E-01
    161 F   6 C     5.375236535060E-02  4.827102567000E-03 -9.414447555000E-02
    162 F   6 C     4.827102567000E-03 -9.414447555000E-02  5.375236535060E-02
    163 F   6 C    -5.375236535060E-02  4.951728974330E-01 -9.414447555000E-02
    164 F   6 C     4.827102567000E-03  9.414447555000E-02  4.462476346494E-01
    165 F   6 C     4.462476346494E-01  4.827102567000E-03  9.414447555000E-02
    166 F   6 C    -4.827102567000E-03 -4.058555244500E-01  5.375236535060E-02
    167 F   6 C     5.375236535060E-02 -4.827102567000E-03 -4.058555244500E-01
    168 F   6 C     4.951728974330E-01 -9.414447555000E-02 -5.375236535060E-02
    169 T   6 C    -2.123202153516E-01 -2.888907010848E-01 -2.375097581215E-01
    170 F   6 C     2.123202153516E-01 -2.111092989152E-01 -2.375097581215E-01
    171 F   6 C     2.876797846484E-01 -2.111092989152E-01  2.375097581215E-01
    172 F   6 C     2.123202153516E-01  2.111092989152E-01 -2.624902418785E-01
    173 F   6 C    -2.375097581215E-01 -2.123202153516E-01 -2.888907010848E-01
    174 F   6 C    -2.888907010848E-01 -2.375097581215E-01 -2.123202153516E-01
    175 F   6 C    -2.624902418785E-01  2.123202153516E-01  2.111092989152E-01
    176 F   6 C    -2.111092989152E-01 -2.375097581215E-01  2.123202153516E-01
    177 F   6 C    -2.375097581215E-01  2.123202153516E-01 -2.111092989152E-01
    178 F   6 C    -2.111092989152E-01  2.375097581215E-01  2.876797846484E-01
    179 F   6 C     2.375097581215E-01  2.876797846484E-01 -2.111092989152E-01
    180 F   6 C     2.111092989152E-01 -2.624902418785E-01  2.123202153516E-01
    181 F   6 C    -3.889070108480E-02  3.767978464840E-02  1.249024187850E-02
    182 F   6 C     3.889070108480E-02  4.623202153516E-01  1.249024187850E-02
    183 F   6 C    -4.611092989152E-01  3.767978464840E-02 -1.249024187850E-02
    184 F   6 C    -3.889070108480E-02 -3.767978464840E-02  4.875097581215E-01
    185 F   6 C     3.767978464840E-02  1.249024187850E-02 -3.889070108480E-02
    186 F   6 C     1.249024187850E-02 -3.889070108480E-02  3.767978464840E-02
    187 F   6 C    -3.767978464840E-02  4.875097581215E-01 -3.889070108480E-02
    188 F   6 C     1.249024187850E-02  3.889070108480E-02  4.623202153516E-01
    189 F   6 C     4.623202153516E-01  1.249024187850E-02  3.889070108480E-02
    190 F   6 C    -1.249024187850E-02 -4.611092989152E-01  3.767978464840E-02
    191 F   6 C     3.767978464840E-02 -1.249024187850E-02 -4.611092989152E-01
    192 F   6 C     4.875097581215E-01 -3.889070108480E-02 -3.767978464840E-02
    193 T   7 N     3.331090918520E-01  1.456234905948E-01  2.074373887034E-01
    194 F   7 N     1.668909081480E-01 -1.456234905948E-01 -2.925626112966E-01
    195 F   7 N    -1.668909081480E-01  3.543765094052E-01 -2.074373887034E-01
    196 F   7 N     1.668909081480E-01  1.456234905948E-01 -2.074373887034E-01
    197 F   7 N     2.074373887034E-01  3.331090918520E-01  1.456234905948E-01
    198 F   7 N     1.456234905948E-01  2.074373887034E-01  3.331090918520E-01
    199 F   7 N    -2.074373887034E-01  1.668909081480E-01  1.456234905948E-01
    200 F   7 N    -1.456234905948E-01 -2.925626112966E-01  1.668909081480E-01
    201 F   7 N    -2.925626112966E-01  1.668909081480E-01 -1.456234905948E-01
    202 F   7 N     3.543765094052E-01 -2.074373887034E-01 -1.668909081480E-01
    203 F   7 N    -2.074373887034E-01 -1.668909081480E-01  3.543765094052E-01
    204 F   7 N     1.456234905948E-01 -2.074373887034E-01  1.668909081480E-01
    205 F   7 N    -1.043765094052E-01  8.310909185200E-02 -4.256261129660E-02
    206 F   7 N     1.043765094052E-01  4.168909081480E-01 -4.256261129660E-02
    207 F   7 N    -3.956234905948E-01  8.310909185200E-02  4.256261129660E-02
    208 F   7 N    -1.043765094052E-01 -8.310909185200E-02 -4.574373887034E-01
    209 F   7 N     8.310909185200E-02 -4.256261129660E-02 -1.043765094052E-01
    210 F   7 N    -4.256261129660E-02 -1.043765094052E-01  8.310909185200E-02
    211 F   7 N    -8.310909185200E-02 -4.574373887034E-01 -1.043765094052E-01
    212 F   7 N    -4.256261129660E-02  1.043765094052E-01  4.168909081480E-01
    213 F   7 N     4.168909081480E-01 -4.256261129660E-02  1.043765094052E-01
    214 F   7 N     4.256261129660E-02 -3.956234905948E-01  8.310909185200E-02
    215 F   7 N     8.310909185200E-02  4.256261129660E-02 -3.956234905948E-01
    216 F   7 N    -4.574373887034E-01 -1.043765094052E-01 -8.310909185200E-02
    217 T   7 N    -2.558531116294E-01 -2.821169511229E-01 -2.023938779791E-01
    218 F   7 N     2.558531116294E-01 -2.178830488771E-01 -2.023938779791E-01
    219 F   7 N     2.441468883706E-01 -2.178830488771E-01  2.023938779791E-01
    220 F   7 N    -2.441468883706E-01 -2.821169511229E-01  2.023938779791E-01
    221 F   7 N    -2.023938779791E-01 -2.558531116294E-01 -2.821169511229E-01
    222 F   7 N    -2.821169511229E-01 -2.023938779791E-01 -2.558531116294E-01
    223 F   7 N     2.023938779791E-01 -2.441468883706E-01 -2.821169511229E-01
    224 F   7 N    -2.178830488771E-01 -2.023938779791E-01  2.558531116294E-01
    225 F   7 N    -2.023938779791E-01  2.558531116294E-01 -2.178830488771E-01
    226 F   7 N    -2.178830488771E-01  2.023938779791E-01  2.441468883706E-01
    227 F   7 N     2.023938779791E-01  2.441468883706E-01 -2.178830488771E-01
    228 F   7 N    -2.821169511229E-01  2.023938779791E-01 -2.441468883706E-01
    229 F   7 N    -3.211695112290E-02 -5.853111629400E-03  4.760612202090E-02
    230 F   7 N     3.211695112290E-02 -4.941468883706E-01  4.760612202090E-02
    231 F   7 N    -4.678830488771E-01 -5.853111629400E-03 -4.760612202090E-02
    232 F   7 N    -3.211695112290E-02  5.853111629400E-03  4.523938779791E-01
    233 F   7 N    -5.853111629400E-03  4.760612202090E-02 -3.211695112290E-02
    234 F   7 N     4.760612202090E-02 -3.211695112290E-02 -5.853111629400E-03
    235 F   7 N     5.853111629400E-03  4.523938779791E-01 -3.211695112290E-02
    236 F   7 N     4.760612202090E-02  3.211695112290E-02 -4.941468883706E-01
    237 F   7 N    -4.941468883706E-01  4.760612202090E-02  3.211695112290E-02
    238 F   7 N    -4.760612202090E-02 -4.678830488771E-01 -5.853111629400E-03
    239 F   7 N    -5.853111629400E-03 -4.760612202090E-02 -4.678830488771E-01
    240 F   7 N     4.523938779791E-01 -3.211695112290E-02  5.853111629400E-03
    241 T  27 CO   -3.798846772517E-02  7.581535381843E-02 -9.442624540388E-02
    242 F  27 CO    3.798846772517E-02  4.241846461816E-01 -9.442624540388E-02
    243 F  27 CO   -3.798846772517E-02 -7.581535381843E-02 -4.055737545961E-01
    244 F  27 CO   -4.620115322748E-01  7.581535381843E-02  9.442624540388E-02
    245 F  27 CO   -9.442624540388E-02 -3.798846772517E-02  7.581535381843E-02
    246 F  27 CO    7.581535381843E-02 -9.442624540388E-02 -3.798846772517E-02
    247 F  27 CO    9.442624540388E-02 -4.620115322748E-01  7.581535381843E-02
    248 F  27 CO    4.241846461816E-01 -9.442624540388E-02  3.798846772517E-02
    249 F  27 CO   -9.442624540388E-02  3.798846772517E-02  4.241846461816E-01
    250 F  27 CO   -7.581535381843E-02 -4.055737545961E-01 -3.798846772517E-02
    251 F  27 CO   -4.055737545961E-01 -3.798846772517E-02 -7.581535381843E-02
    252 F  27 CO    7.581535381843E-02  9.442624540388E-02 -4.620115322748E-01
    253 F  27 CO    3.258153538184E-01  2.120115322748E-01  1.555737545961E-01
    254 F  27 CO    1.741846461816E-01 -2.120115322748E-01 -3.444262454039E-01
    255 F  27 CO    1.741846461816E-01  2.120115322748E-01 -1.555737545961E-01
    256 F  27 CO   -1.741846461816E-01  2.879884677252E-01 -1.555737545961E-01
    257 F  27 CO    2.120115322748E-01  1.555737545961E-01  3.258153538184E-01
    258 F  27 CO    1.555737545961E-01  3.258153538184E-01  2.120115322748E-01
    259 F  27 CO    2.879884677252E-01 -1.555737545961E-01 -1.741846461816E-01
    260 F  27 CO   -3.444262454039E-01  1.741846461816E-01 -2.120115322748E-01
    261 F  27 CO   -2.120115322748E-01 -3.444262454039E-01  1.741846461816E-01
    262 F  27 CO   -1.555737545961E-01  1.741846461816E-01  2.120115322748E-01
    263 F  27 CO    2.120115322748E-01 -1.555737545961E-01  1.741846461816E-01
    264 F  27 CO   -1.555737545961E-01 -1.741846461816E-01  2.879884677252E-01
    265 T  17 CL   -8.255063725993E-02  9.509824886446E-02 -1.694947456784E-01
    266 F  17 CL    8.255063725993E-02  4.049017511355E-01 -1.694947456784E-01
    267 F  17 CL   -8.255063725993E-02 -9.509824886446E-02 -3.305052543216E-01
    268 F  17 CL   -4.174493627401E-01  9.509824886446E-02  1.694947456784E-01
    269 F  17 CL   -1.694947456784E-01 -8.255063725993E-02  9.509824886446E-02
    270 F  17 CL    9.509824886446E-02 -1.694947456784E-01 -8.255063725993E-02
    271 F  17 CL    1.694947456784E-01 -4.174493627401E-01  9.509824886446E-02
    272 F  17 CL    4.049017511355E-01 -1.694947456784E-01  8.255063725993E-02
    273 F  17 CL   -1.694947456784E-01  8.255063725993E-02  4.049017511355E-01
    274 F  17 CL   -9.509824886446E-02 -3.305052543216E-01 -8.255063725993E-02
    275 F  17 CL   -3.305052543216E-01 -8.255063725993E-02 -9.509824886446E-02
    276 F  17 CL    9.509824886446E-02  1.694947456784E-01 -4.174493627401E-01
    277 F  17 CL    3.450982488645E-01  1.674493627401E-01  8.050525432160E-02
    278 F  17 CL    1.549017511355E-01 -1.674493627401E-01 -4.194947456784E-01
    279 F  17 CL    1.549017511355E-01  1.674493627401E-01 -8.050525432160E-02
    280 F  17 CL   -1.549017511355E-01  3.325506372599E-01 -8.050525432160E-02
    281 F  17 CL    1.674493627401E-01  8.050525432160E-02  3.450982488645E-01
    282 F  17 CL    8.050525432160E-02  3.450982488645E-01  1.674493627401E-01
    283 F  17 CL    3.325506372599E-01 -8.050525432160E-02 -1.549017511355E-01
    284 F  17 CL   -4.194947456784E-01  1.549017511355E-01 -1.674493627401E-01
    285 F  17 CL   -1.674493627401E-01 -4.194947456784E-01  1.549017511355E-01
    286 F  17 CL   -8.050525432160E-02  1.549017511355E-01  1.674493627401E-01
    287 F  17 CL    1.674493627401E-01 -8.050525432160E-02  1.549017511355E-01
    288 F  17 CL   -8.050525432160E-02 -1.549017511355E-01  3.325506372599E-01
    289 T   6 C     3.750000000000E-01  5.551115123126E-17  2.500000000000E-01
    290 F   6 C     1.250000000000E-01 -1.174346987995E-18 -2.500000000000E-01
    291 F   6 C     2.500000000000E-01  3.750000000000E-01  2.305818766365E-17
    292 F   6 C     1.225513962943E-16  2.500000000000E-01  3.750000000000E-01
    293 F   6 C    -2.500000000000E-01  1.250000000000E-01  8.113240891903E-18
    294 F   6 C     1.167868493784E-16 -2.500000000000E-01  1.250000000000E-01

 T = ATOM BELONGING TO THE ASYMMETRIC UNIT

 ****   24 SYMMOPS - TRANSLATORS IN FRACTIONAL UNITS
 **** MATRICES AND TRANSLATORS IN THE CRYSTALLOGRAPHIC REFERENCE FRAME
   V INV                    ROTATION MATRICES                   TRANSLATORS
   1   1  1.00  0.00  0.00  0.00  1.00  0.00  0.00  0.00  1.00  0.00  0.00  0.00
   2   2  0.00  1.00 -1.00  1.00  0.00 -1.00 -0.00  0.00 -1.00  0.50 -0.00  0.50
   3   3 -1.00 -0.00  0.00 -1.00 -0.00  1.00 -1.00  1.00 -0.00  0.50  0.50 -0.00
   4   4 -0.00 -1.00  1.00 -0.00 -1.00  0.00  1.00 -1.00  0.00 -0.00  0.50  0.50
   5   6  0.00 -0.00  1.00  1.00 -0.00  0.00  0.00  1.00 -0.00  0.00  0.00  0.00
   6   5  0.00  1.00 -0.00  0.00 -0.00  1.00  1.00  0.00 -0.00  0.00  0.00  0.00
   7   8  1.00 -1.00  0.00  0.00 -1.00  1.00 -0.00 -1.00  0.00  0.50 -0.00  0.50
   8   7  1.00  0.00 -1.00 -0.00  0.00 -1.00  0.00  1.00 -1.00 -0.00  0.50  0.50
   9  10 -0.00  0.00 -1.00 -0.00  1.00 -1.00  1.00  0.00 -1.00  0.50  0.50 -0.00
  10   9 -1.00 -0.00  1.00 -1.00  1.00 -0.00 -1.00 -0.00  0.00  0.50 -0.00  0.50
  11  12 -1.00  1.00 -0.00 -1.00  0.00 -0.00 -1.00 -0.00  1.00 -0.00  0.50  0.50
  12  11 -0.00 -1.00  0.00  1.00 -1.00  0.00 -0.00 -1.00  1.00  0.50  0.50 -0.00
[...]
 111 H    1  0.000  0.000 -0.000  0.000
 112 H    1  0.000  0.000 -0.000  0.000
 113 H    1  0.000  0.000 -0.000  0.000
 114 H    1  0.000  0.000 -0.000  0.000
 115 H    1  0.000  0.000 -0.000  0.000
 116 H    1  0.000  0.000 -0.000  0.000
 117 H    1  0.000  0.000 -0.000  0.000
 118 H    1  0.000  0.000 -0.000  0.000
 119 H    1  0.000  0.000 -0.000  0.000
 120 H    1  0.000  0.000 -0.000  0.000
 121 N    7  0.000 -0.000  0.000  0.000  0.000  0.000  0.000
 122 N    7  0.000 -0.000  0.000  0.000  0.000  0.000  0.000
 123 N    7  0.000 -0.000  0.000  0.000  0.000  0.000  0.000
 124 N    7  0.000 -0.000  0.000  0.000  0.000  0.000  0.000
 125 N    7  0.000 -0.000  0.000  0.000  0.000  0.000  0.000
 126 N    7  0.000 -0.000  0.000  0.000  0.000  0.000  0.000
 127 N    7  0.000 -0.000  0.000  0.000  0.000  0.000  0.000
 128 N    7  0.000 -0.000  0.000  0.000  0.000  0.000  0.000
 129 N    7  0.000 -0.000  0.000  0.000  0.000  0.000  0.000
 130 N    7  0.000 -0.000  0.000  0.000  0.000  0.000  0.000
 131 N    7  0.000 -0.000  0.000  0.000  0.000  0.000  0.000
 132 N    7  0.000 -0.000  0.000  0.000  0.000  0.000  0.000
 133 N    7  0.000 -0.000  0.000  0.000  0.000  0.000  0.000
 134 N    7  0.000 -0.000  0.000  0.000  0.000  0.000  0.000
 135 N    7  0.000 -0.000  0.000  0.000  0.000  0.000  0.000
 136 N    7  0.000 -0.000  0.000  0.000  0.000  0.000  0.000
 137 N    7  0.000 -0.000  0.000  0.000  0.000  0.000  0.000
 138 N    7  0.000 -0.000  0.000  0.000  0.000  0.000  0.000
 139 N    7  0.000 -0.000  0.000  0.000  0.000  0.000  0.000
 140 N    7  0.000 -0.000  0.000  0.000  0.000  0.000  0.000
 141 N    7  0.000 -0.000  0.000  0.000  0.000  0.000  0.000
 142 N    7  0.000 -0.000  0.000  0.000  0.000  0.000  0.000
 143 N    7  0.000 -0.000  0.000  0.000  0.000  0.000  0.000
 144 N    7  0.000 -0.000  0.000  0.000  0.000  0.000  0.000
 145 C    6  0.000  0.000 -0.000  0.000  0.000  0.000  0.000
 146 C    6  0.000  0.000 -0.000  0.000  0.000  0.000  0.000
 147 C    6  0.000  0.000 -0.000  0.000  0.000  0.000  0.000
 148 C    6  0.000  0.000 -0.000  0.000  0.000  0.000  0.000
 149 C    6  0.000  0.000 -0.000  0.000  0.000  0.000  0.000
 150 C    6  0.000  0.000 -0.000  0.000  0.000  0.000  0.000
 151 C    6  0.000  0.000 -0.000  0.000  0.000  0.000  0.000
 152 C    6  0.000  0.000 -0.000  0.000  0.000  0.000  0.000
 153 C    6  0.000  0.000 -0.000  0.000  0.000  0.000  0.000
 154 C    6  0.000  0.000 -0.000  0.000  0.000  0.000  0.000
 155 C    6  0.000  0.000 -0.000  0.000  0.000  0.000  0.000
 156 C    6  0.000  0.000 -0.000  0.000  0.000  0.000  0.000
 157 C    6  0.000  0.000 -0.000  0.000  0.000  0.000  0.000
 158 C    6  0.000  0.000 -0.000  0.000  0.000  0.000  0.000
 159 C    6  0.000  0.000 -0.000  0.000  0.000  0.000  0.000
 160 C    6  0.000  0.000 -0.000  0.000  0.000  0.000  0.000
 161 C    6  0.000  0.000 -0.000  0.000  0.000  0.000  0.000
 162 C    6  0.000  0.000 -0.000  0.000  0.000  0.000  0.000
 163 C    6  0.000  0.000 -0.000  0.000  0.000  0.000  0.000
 164 C    6  0.000  0.000 -0.000  0.000  0.000  0.000  0.000
 165 C    6  0.000  0.000 -0.000  0.000  0.000  0.000  0.000
 166 C    6  0.000  0.000 -0.000  0.000  0.000  0.000  0.000
 167 C    6  0.000  0.000 -0.000  0.000  0.000  0.000  0.000
 168 C    6  0.000  0.000 -0.000  0.000  0.000  0.000  0.000
 169 C    6  0.000  0.000  0.000  0.000  0.000  0.000  0.000
 170 C    6  0.000  0.000  0.000  0.000  0.000  0.000  0.000
 171 C    6  0.000  0.000  0.000  0.000  0.000  0.000  0.000
 172 C    6  0.000  0.000  0.000  0.000  0.000  0.000  0.000
 173 C    6  0.000  0.000  0.000  0.000  0.000  0.000  0.000
 174 C    6  0.000  0.000  0.000  0.000  0.000  0.000  0.000
 175 C    6  0.000  0.000  0.000  0.000  0.000  0.000  0.000
 176 C    6  0.000  0.000  0.000  0.000  0.000  0.000  0.000
 177 C    6  0.000  0.000  0.000  0.000  0.000  0.000  0.000
 178 C    6  0.000  0.000  0.000  0.000  0.000  0.000  0.000
 179 C    6  0.000  0.000  0.000  0.000  0.000  0.000  0.000
 180 C    6  0.000  0.000  0.000  0.000  0.000  0.000  0.000
 181 C    6  0.000  0.000  0.000  0.000  0.000  0.000  0.000
 182 C    6  0.000  0.000  0.000  0.000  0.000  0.000  0.000
 183 C    6  0.000  0.000  0.000  0.000  0.000  0.000  0.000
 184 C    6  0.000  0.000  0.000  0.000  0.000  0.000  0.000
 185 C    6  0.000  0.000  0.000  0.000  0.000  0.000  0.000
 186 C    6  0.000  0.000  0.000  0.000  0.000  0.000  0.000
 187 C    6  0.000  0.000  0.000  0.000  0.000  0.000  0.000
 188 C    6  0.000  0.000  0.000  0.000  0.000  0.000  0.000
 189 C    6  0.000  0.000  0.000  0.000  0.000  0.000  0.000
 190 C    6  0.000  0.000  0.000  0.000  0.000  0.000  0.000
 191 C    6  0.000  0.000  0.000  0.000  0.000  0.000  0.000
 192 C    6  0.000  0.000  0.000  0.000  0.000  0.000  0.000
 193 N    7  0.000 -0.000  0.000  0.000  0.000  0.000  0.000
 194 N    7  0.000 -0.000  0.000  0.000  0.000  0.000  0.000
 195 N    7  0.000 -0.000  0.000  0.000  0.000  0.000  0.000
 196 N    7  0.000 -0.000  0.000  0.000  0.000  0.000  0.000
 197 N    7  0.000 -0.000  0.000  0.000  0.000  0.000  0.000
 198 N    7  0.000 -0.000  0.000  0.000  0.000  0.000  0.000
 199 N    7  0.000 -0.000  0.000  0.000  0.000  0.000  0.000
 200 N    7  0.000 -0.000  0.000  0.000  0.000  0.000  0.000
 201 N    7  0.000 -0.000  0.000  0.000  0.000  0.000  0.000
 202 N    7  0.000 -0.000  0.000  0.000  0.000  0.000  0.000
 203 N    7  0.000 -0.000  0.000  0.000  0.000  0.000  0.000
 204 N    7  0.000 -0.000  0.000  0.000  0.000  0.000  0.000
 205 N    7  0.000 -0.000  0.000  0.000  0.000  0.000  0.000
 206 N    7  0.000 -0.000  0.000  0.000  0.000  0.000  0.000
 207 N    7  0.000 -0.000  0.000  0.000  0.000  0.000  0.000
 208 N    7  0.000 -0.000  0.000  0.000  0.000  0.000  0.000
 209 N    7  0.000 -0.000  0.000  0.000  0.000  0.000  0.000
 210 N    7  0.000 -0.000  0.000  0.000  0.000  0.000  0.000
 211 N    7  0.000 -0.000  0.000  0.000  0.000  0.000  0.000
 212 N    7  0.000 -0.000  0.000  0.000  0.000  0.000  0.000
 213 N    7  0.000 -0.000  0.000  0.000  0.000  0.000  0.000
 214 N    7  0.000 -0.000  0.000  0.000  0.000  0.000  0.000
 215 N    7  0.000 -0.000  0.000  0.000  0.000  0.000  0.000
 216 N    7  0.000 -0.000  0.000  0.000  0.000  0.000  0.000
 217 N    7  0.000 -0.000  0.000 -0.000  0.000  0.000  0.000
 218 N    7  0.000 -0.000  0.000 -0.000  0.000  0.000  0.000
 219 N    7  0.000 -0.000  0.000 -0.000  0.000  0.000  0.000
 220 N    7  0.000 -0.000  0.000 -0.000  0.000  0.000  0.000
 221 N    7  0.000 -0.000  0.000 -0.000  0.000  0.000  0.000
 222 N    7  0.000 -0.000  0.000 -0.000  0.000  0.000  0.000
 223 N    7  0.000 -0.000  0.000 -0.000  0.000  0.000  0.000
 224 N    7  0.000 -0.000  0.000 -0.000  0.000  0.000  0.000
 225 N    7  0.000 -0.000  0.000 -0.000  0.000  0.000  0.000
 226 N    7  0.000 -0.000  0.000 -0.000  0.000  0.000  0.000
 227 N    7  0.000 -0.000  0.000 -0.000  0.000  0.000  0.000
 228 N    7  0.000 -0.000  0.000 -0.000  0.000  0.000  0.000
 229 N    7  0.000 -0.000  0.000 -0.000  0.000  0.000  0.000
 230 N    7  0.000 -0.000  0.000 -0.000  0.000  0.000  0.000
 231 N    7  0.000 -0.000  0.000 -0.000  0.000  0.000  0.000
 232 N    7  0.000 -0.000  0.000 -0.000  0.000  0.000  0.000
 233 N    7  0.000 -0.000  0.000 -0.000  0.000  0.000  0.000
 234 N    7  0.000 -0.000  0.000 -0.000  0.000  0.000  0.000
 235 N    7  0.000 -0.000  0.000 -0.000  0.000  0.000  0.000
 236 N    7  0.000 -0.000  0.000 -0.000  0.000  0.000  0.000
 237 N    7  0.000 -0.000  0.000 -0.000  0.000  0.000  0.000
 238 N    7  0.000 -0.000  0.000 -0.000  0.000  0.000  0.000
 239 N    7  0.000 -0.000  0.000 -0.000  0.000  0.000  0.000
 240 N    7  0.000 -0.000  0.000 -0.000  0.000  0.000  0.000
 241 CO  27 -0.000 -0.000 -0.000 -0.000  0.000 -0.000 -0.000 -0.000  0.000
                   -0.000 -0.000  0.000
 242 CO  27 -0.000 -0.000 -0.000 -0.000  0.000 -0.000 -0.000 -0.000  0.000
                   -0.000 -0.000  0.000
 243 CO  27 -0.000 -0.000 -0.000 -0.000  0.000 -0.000 -0.000 -0.000  0.000
                   -0.000 -0.000  0.000
 244 CO  27 -0.000 -0.000 -0.000 -0.000  0.000 -0.000 -0.000 -0.000  0.000
                   -0.000 -0.000  0.000
 245 CO  27 -0.000 -0.000 -0.000 -0.000  0.000 -0.000 -0.000 -0.000  0.000
                   -0.000 -0.000  0.000
 246 CO  27 -0.000 -0.000 -0.000 -0.000  0.000 -0.000 -0.000 -0.000  0.000
                   -0.000 -0.000  0.000
 247 CO  27 -0.000 -0.000 -0.000 -0.000  0.000 -0.000 -0.000 -0.000  0.000
                   -0.000 -0.000  0.000
 248 CO  27 -0.000 -0.000 -0.000 -0.000  0.000 -0.000 -0.000 -0.000  0.000
                   -0.000 -0.000  0.000
 249 CO  27 -0.000 -0.000 -0.000 -0.000  0.000 -0.000 -0.000 -0.000  0.000
                   -0.000 -0.000  0.000
 250 CO  27 -0.000 -0.000 -0.000 -0.000  0.000 -0.000 -0.000 -0.000  0.000
                   -0.000 -0.000  0.000
 251 CO  27 -0.000 -0.000 -0.000 -0.000  0.000 -0.000 -0.000 -0.000  0.000
                   -0.000 -0.000  0.000
 252 CO  27 -0.000 -0.000 -0.000 -0.000  0.000 -0.000 -0.000 -0.000  0.000
                   -0.000 -0.000  0.000
 253 CO  27 -0.000 -0.000 -0.000 -0.000  0.000 -0.000 -0.000 -0.000  0.000
                   -0.000 -0.000  0.000
 254 CO  27 -0.000 -0.000 -0.000 -0.000  0.000 -0.000 -0.000 -0.000  0.000
                   -0.000 -0.000  0.000
 255 CO  27 -0.000 -0.000 -0.000 -0.000  0.000 -0.000 -0.000 -0.000  0.000
                   -0.000 -0.000  0.000
 256 CO  27 -0.000 -0.000 -0.000 -0.000  0.000 -0.000 -0.000 -0.000  0.000
                   -0.000 -0.000  0.000
 257 CO  27 -0.000 -0.000 -0.000 -0.000  0.000 -0.000 -0.000 -0.000  0.000
                   -0.000 -0.000  0.000
 258 CO  27 -0.000 -0.000 -0.000 -0.000  0.000 -0.000 -0.000 -0.000  0.000
                   -0.000 -0.000  0.000
 259 CO  27 -0.000 -0.000 -0.000 -0.000  0.000 -0.000 -0.000 -0.000  0.000
                   -0.000 -0.000  0.000
 260 CO  27 -0.000 -0.000 -0.000 -0.000  0.000 -0.000 -0.000 -0.000  0.000
                   -0.000 -0.000  0.000
 261 CO  27 -0.000 -0.000 -0.000 -0.000  0.000 -0.000 -0.000 -0.000  0.000
                   -0.000 -0.000  0.000
 262 CO  27 -0.000 -0.000 -0.000 -0.000  0.000 -0.000 -0.000 -0.000  0.000
                   -0.000 -0.000  0.000
 263 CO  27 -0.000 -0.000 -0.000 -0.000  0.000 -0.000 -0.000 -0.000  0.000
                   -0.000 -0.000  0.000
 264 CO  27 -0.000 -0.000 -0.000 -0.000  0.000 -0.000 -0.000 -0.000  0.000
                   -0.000 -0.000  0.000
 265 CL  17 -0.000  0.000 -0.000 -0.000  0.000 -0.000 -0.000 -0.000 -0.000
 266 CL  17 -0.000  0.000 -0.000 -0.000  0.000 -0.000 -0.000 -0.000 -0.000
 267 CL  17 -0.000  0.000 -0.000 -0.000  0.000 -0.000 -0.000 -0.000 -0.000
 268 CL  17 -0.000  0.000 -0.000 -0.000  0.000 -0.000 -0.000 -0.000 -0.000
 269 CL  17 -0.000  0.000 -0.000 -0.000  0.000 -0.000 -0.000 -0.000 -0.000
 270 CL  17 -0.000  0.000 -0.000 -0.000  0.000 -0.000 -0.000 -0.000 -0.000
 271 CL  17 -0.000  0.000 -0.000 -0.000  0.000 -0.000 -0.000 -0.000 -0.000
 272 CL  17 -0.000  0.000 -0.000 -0.000  0.000 -0.000 -0.000 -0.000 -0.000
 273 CL  17 -0.000  0.000 -0.000 -0.000  0.000 -0.000 -0.000 -0.000 -0.000
 274 CL  17 -0.000  0.000 -0.000 -0.000  0.000 -0.000 -0.000 -0.000 -0.000
 275 CL  17 -0.000  0.000 -0.000 -0.000  0.000 -0.000 -0.000 -0.000 -0.000
 276 CL  17 -0.000  0.000 -0.000 -0.000  0.000 -0.000 -0.000 -0.000 -0.000
 277 CL  17 -0.000  0.000 -0.000 -0.000  0.000 -0.000 -0.000 -0.000 -0.000
 278 CL  17 -0.000  0.000 -0.000 -0.000  0.000 -0.000 -0.000 -0.000 -0.000
 279 CL  17 -0.000  0.000 -0.000 -0.000  0.000 -0.000 -0.000 -0.000 -0.000
 280 CL  17 -0.000  0.000 -0.000 -0.000  0.000 -0.000 -0.000 -0.000 -0.000
 281 CL  17 -0.000  0.000 -0.000 -0.000  0.000 -0.000 -0.000 -0.000 -0.000
 282 CL  17 -0.000  0.000 -0.000 -0.000  0.000 -0.000 -0.000 -0.000 -0.000
 283 CL  17 -0.000  0.000 -0.000 -0.000  0.000 -0.000 -0.000 -0.000 -0.000
 284 CL  17 -0.000  0.000 -0.000 -0.000  0.000 -0.000 -0.000 -0.000 -0.000
 285 CL  17 -0.000  0.000 -0.000 -0.000  0.000 -0.000 -0.000 -0.000 -0.000
 286 CL  17 -0.000  0.000 -0.000 -0.000  0.000 -0.000 -0.000 -0.000 -0.000
 287 CL  17 -0.000  0.000 -0.000 -0.000  0.000 -0.000 -0.000 -0.000 -0.000
 288 CL  17 -0.000  0.000 -0.000 -0.000  0.000 -0.000 -0.000 -0.000 -0.000
 289 C    6  0.000 -0.000  0.000 -0.000 -0.000  0.000  0.000
 290 C    6  0.000 -0.000  0.000 -0.000 -0.000  0.000  0.000
 291 C    6  0.000 -0.000  0.000 -0.000 -0.000  0.000  0.000
 292 C    6  0.000 -0.000  0.000 -0.000 -0.000  0.000  0.000
 293 C    6  0.000 -0.000  0.000 -0.000 -0.000  0.000  0.000
 294 C    6  0.000 -0.000  0.000 -0.000 -0.000  0.000  0.000

 OVERLAP POPULATION CONDENSED TO ATOMS FOR FIRST   6 NEIGHBORS

 ATOM A   1 C    ATOM B     CELL      R(AB)/AU R(AB)/ANG    OVPOP(AB)
                 25 H    (  0  0  0)     2.056     1.088    -0.000
                193 N    (  0  0  0)     2.519     1.333     0.000
                 49 C    (  0  0  0)     2.654     1.404    -0.000
                145 C    (  0  0  0)     4.285     2.267     0.000
                 73 C    (  0  0  0)     4.533     2.399    -0.000
                289 C    (  0  0  0)     4.868     2.576     0.000

 ATOM A  25 H    ATOM B     CELL      R(AB)/AU R(AB)/ANG    OVPOP(AB)
                  1 C    (  0  0  0)     2.056     1.088    -0.000
                193 N    (  0  0  0)     3.858     2.042    -0.000
                 49 C    (  0  0  0)     4.169     2.206    -0.000
                 93 C    (  0  0  0)     4.437     2.348    -0.000
                 69 C    (  0  0  0)     4.783     2.531     0.000
                141 N    (  0  0  0)     5.085     2.691    -0.000

 ATOM A  49 C    ATOM B     CELL      R(AB)/AU R(AB)/ANG    OVPOP(AB)
                  1 C    (  0  0  0)     2.654     1.404    -0.000
                 73 C    (  0  0  0)     2.664     1.410    -0.000
                289 C    (  0  0  0)     2.890     1.530     0.000
                 97 H    (  0  0  0)     4.153     2.198    -0.000
                 25 H    (  0  0  0)     4.169     2.206    -0.000
                193 N    (  0  0  0)     4.509     2.386    -0.000

 ATOM A  73 C    ATOM B     CELL      R(AB)/AU R(AB)/ANG    OVPOP(AB)
                 97 H    (  0  0  0)     2.064     1.092    -0.000
                121 N    (  0  0  0)     2.525     1.336     0.000
                 49 C    (  0  0  0)     2.664     1.410    -0.000
                145 C    (  0  0  0)     4.286     2.268    -0.000
                 43 H    (  1  1  1)     4.437     2.348    -0.000
                  1 C    (  0  0  0)     4.533     2.399    -0.000

 ATOM A  97 H    ATOM B     CELL      R(AB)/AU R(AB)/ANG    OVPOP(AB)
                 73 C    (  0  0  0)     2.064     1.092    -0.000
                121 N    (  0  0  0)     3.906     2.067     0.000
                 49 C    (  0  0  0)     4.153     2.198    -0.000
                 43 H    (  1  1  1)     5.224     2.764     0.000
                 51 C    (  0  0  0)     5.276     2.792     0.000
                289 C    (  0  0  0)     5.330     2.821    -0.000

 ATOM A 121 N    ATOM B     CELL      R(AB)/AU R(AB)/ANG    OVPOP(AB)
                 73 C    (  0  0  0)     2.525     1.336     0.000
                145 C    (  0  0  0)     2.567     1.359    -0.000
                257 CO   (  0  0  0)     3.868     2.047     0.000
                 97 H    (  0  0  0)     3.906     2.067     0.000
                169 C    (  1  1  1)     4.413     2.335    -0.000
                 49 C    (  0  0  0)     4.523     2.394    -0.000

 ATOM A 145 C    ATOM B     CELL      R(AB)/AU R(AB)/ANG    OVPOP(AB)
                193 N    (  0  0  0)     2.563     1.356    -0.000
                121 N    (  0  0  0)     2.567     1.359    -0.000
                169 C    (  1  1  1)     2.625     1.389     0.000
                  1 C    (  0  0  0)     4.285     2.267     0.000
                 73 C    (  0  0  0)     4.286     2.268    -0.000
                221 N    (  1  1  1)     4.337     2.295    -0.000

 ATOM A 169 C    ATOM B     CELL      R(AB)/AU R(AB)/ANG    OVPOP(AB)
                217 N    (  0  0  0)     2.548     1.348    -0.000
                221 N    (  0  0  0)     2.550     1.349    -0.000
                145 C    ( -1 -1 -1)     2.625     1.389     0.000
                173 C    (  0  0  0)     4.322     2.287    -0.000
                193 N    ( -1 -1 -1)     4.380     2.318    -0.000
                121 N    ( -1 -1 -1)     4.413     2.335    -0.000

 ATOM A 193 N    ATOM B     CELL      R(AB)/AU R(AB)/ANG    OVPOP(AB)
                  1 C    (  0  0  0)     2.519     1.333     0.000
                145 C    (  0  0  0)     2.563     1.356    -0.000
                253 CO   (  0  0  0)     3.824     2.023     0.000
                 25 H    (  0  0  0)     3.858     2.042    -0.000
                169 C    (  1  1  1)     4.380     2.318    -0.000
                 49 C    (  0  0  0)     4.509     2.386    -0.000

 ATOM A 217 N    ATOM B     CELL      R(AB)/AU R(AB)/ANG    OVPOP(AB)
                169 C    (  0  0  0)     2.548     1.348    -0.000
                174 C    (  0  0  0)     2.550     1.349    -0.000
                257 CO   ( -1 -1 -1)     3.417     1.808     0.000
                150 C    ( -1 -1 -1)     4.337     2.295    -0.000
                145 C    ( -1 -1 -1)     4.344     2.299    -0.000
                221 N    (  0  0  0)     4.500     2.381    -0.000

 ATOM A 241 CO   ATOM B     CELL      R(AB)/AU R(AB)/ANG    OVPOP(AB)
                233 N    (  0  0  0)     3.417     1.808     0.000
                205 N    (  0  0  0)     3.824     2.023     0.000
                137 N    (  0  0  0)     3.868     2.047     0.000
                265 CL   (  0  0  0)     4.043     2.139     0.000
                185 C    (  0  0  0)     5.120     2.709    -0.000
                181 C    (  0  0  0)     5.133     2.716    -0.000

 ATOM A 265 CL   ATOM B     CELL      R(AB)/AU R(AB)/ANG    OVPOP(AB)
                241 CO   (  0  0  0)     4.043     2.139     0.000
                 37 H    (  0  0  0)     5.431     2.874    -0.000
                113 H    (  0  0  0)     5.685     3.008    -0.000
                205 N    (  0  0  0)     5.849     3.095    -0.000
                137 N    (  0  0  0)     5.893     3.119    -0.000
                 13 C    (  0  0  0)     6.434     3.404     0.000

 ATOM A 289 C    ATOM B     CELL      R(AB)/AU R(AB)/ANG    OVPOP(AB)
                 49 C    (  0  0  0)     2.890     1.530     0.000
                 73 C    (  0  0  0)     4.806     2.543     0.000
                  1 C    (  0  0  0)     4.868     2.576     0.000
                 97 H    (  0  0  0)     5.330     2.821    -0.000
                 25 H    (  0  0  0)     5.496     2.908    -0.000
                121 N    (  0  0  0)     7.080     3.746    -0.000
 EIGENVECTORS IN FORTRAN UNIT  8
 TTTTTTTTTTTTTTTTTTTTTTTTTTTTTT END         TELAPSE     1093.68 TCPU     1086.80
 MMMMM END         USED MEM(MB)     54.57 MAX MEM    279.44 TOT MEM      1309.72
 EEEEEEEEEE TERMINATION  DATE 28 04 2025 TIME 16:56:19.2
NODE    0 CPU TIME =      1086.803
NODE    1 CPU TIME =      1087.084
NODE    2 CPU TIME =      1086.728
NODE    3 CPU TIME =      1087.936
NODE    4 CPU TIME =      1087.197
NODE    5 CPU TIME =      1087.052
NODE    6 CPU TIME =      1085.902
NODE    7 CPU TIME =      1088.174
NODE    8 CPU TIME =      1087.093
NODE    9 CPU TIME =      1085.416
NODE   10 CPU TIME =      1086.979
NODE   11 CPU TIME =      1088.116
NODE   12 CPU TIME =      1087.065
NODE   13 CPU TIME =      1086.572
NODE   14 CPU TIME =      1087.351
NODE   15 CPU TIME =      1086.663
NODE   16 CPU TIME =      1087.606
NODE   17 CPU TIME =      1087.170
NODE   18 CPU TIME =      1085.477
NODE   19 CPU TIME =      1086.529
NODE   20 CPU TIME =      1087.047
NODE   21 CPU TIME =      1087.636
NODE   22 CPU TIME =      1086.469
NODE   23 CPU TIME =      1088.126
    TOTAL CPU TIME =     26088.192
