 PROCESS           19  OF           24  WORKING
 PROCESS            8  OF           24  WORKING
 PROCESS            9  OF           24  WORKING
 PROCESS            6  OF           24  WORKING
 PROCESS           18  OF           24  WORKING
 PROCESS           10  OF           24  WORKING
 PROCESS           14  OF           24  WORKING
 PROCESS           15  OF           24  WORKING
 PROCESS           12  OF           24  WORKING
 PROCESS           11  OF           24  WORKING
 PROCESS            4  OF           24  WORKING
 PROCESS            1  OF           24  WORKING
 PROCESS            7  OF           24  WORKING
 PROCESS            2  OF           24  WORKING
 PROCESS            5  OF           24  WORKING
 PROCESS           16  OF           24  WORKING
 PROCESS           17  OF           24  WORKING
 PROCESS           21  OF           24  WORKING
 PROCESS           22  OF           24  WORKING
 PROCESS           13  OF           24  WORKING
 PROCESS            0  OF           24  WORKING
 PROCESS           20  OF           24  WORKING
 PROCESS           23  OF           24  WORKING
 PROCESS            3  OF           24  WORKING

         
 *******************************************************************************
 *                                                                             *
 *                               CRYSTAL23                                     *
 *                      public : 1.0.1 - October 2022                          *
 *                       HTTP://WWW.CRYSTAL.UNITO.IT                           *
 *                                                                             *
 *                              MAIN AUTHORS                                   *
 *                                                                             *
 *  R. DOVESI(1,11), V.R. SAUNDERS(2), C. ROETTI(1,11), R. ORLANDO(1,11),      *
 *  C.M. ZICOVICH-WILSON(1,3), F. PASCALE(4), B. CIVALLERI(1,11),              *
 *  K. DOLL(5), N.M. HARRISON(6), I.J. BUSH(7), Ph. D'ARCO(8),                 *
 *  M. LLUNELL(9), M. CAUSA'(10), Y. NOEL(8), L. MASCHIO(1,11), A. ERBA(1,11)  *
 *  M. RE'RAT(14), S. CASASSA(1,11), B.G. SEARLE(2), J.K. DESMARAIS(1)         *
 *                                                                             *
 *        CONTRIBUTIONS TO THE CODE HAVE ALSO BEEN GIVEN BY                    *
 *                                                                             *
 *  M. FERRABONE(1,11), M. DE LA PIERRE(1,11), M. FERRERO(1,11),               *
 *  J. BAIMA(1,11), E. ALBANESE(1,11), M.F. PEINTINGER(12), R. BAST(13),       *
 *  B. KIRTMAN(15), V. LACIVITA(1,11), R. DEMICHELIS(1,16)                     *
 *  G. BRANDEBURG(17), S. SALUSTRO(1,11), G. SANSONE(1,11)                     *
 *  M.T. RUGGIERO(18), L.E. DAGA(1), L. DONA'(1), A. COSSARD(1)                *
 *                                                                             *
 * (1) THEORETICAL CHEMISTRY GROUP - UNIVERSITA' DI TORINO - TORINO (ITALY)    *
 * (2) SCIENTIFIC COMPUTING DEPARTMENT - STFC DARESBURY (UK)                   *
 * (3) UNIVERSIDAD AUTONOMA DEL ESTADO DE MORELOS - CUERNAVACA (MEXICO)        *
 * (4) UNIVERSITE' DE LORRAINE - NANCY (FRANCE)                                *
 * (5) UNIVERSITAET STUTTGART- STUTTGART (GERMANY)                             *
 * (6) IMPERIAL COLLEGE - LONDON (UK)                                          *
 * (7) SCIENTIFIC COMPUTING DEPARTMENT - STFC RAL (UK)                         *
 * (8) UPMC - SORBONNE UNIVERSITES - PARIS (FRANCE)                            *
 * (9) UNIVERSIDAD DE BARCELONA - BARCELONA (SPAIN)                            *
 *(10) UNIVERSITA' DI NAPOLI "FEDERICO II" - NAPOLI (ITALY)                    *
 *(11) NIS - NANOSTRUCTURED INTERFACES AND SURFACES - TORINO (ITALY)           *
 *(12) MPI FUER CHEMISCHE ENERGIEKONVERSION - MUELHEIM AN DER RUHR (GERMANY)   *
 *(13) UNIVERSITY OF TROMSO - TROMSO (NORWAY)                                  *
 *(14) UNIVERSITE' DE PAU ET DES PAYS DE L'ADOUR - PAU (FRANCE)                *
 *(15) UNIVERSITY OF CALIFORNIA SANTA BARBARA - SANTA BARBARA (USA)            *
 *(16) CURTIN UNIVERSITY - PERTH (AUSTRALIA)                                   *
 *(17) UNIVERSITY COLLEGE LONDON - LONDON (UK)                                 *
 *(18) UNIVERSITY OF VERMONT - BURLINGTON (USA)                                *
 *                                                                             *
 *******************************************************************************
 EEEEEEEEEE STARTING  DATE 28 04 2025 TIME 16:38:06.7
 CuCltryCOF102_sym                                                               

 CRYSTAL CALCULATION
 (INPUT ACCORDING TO THE INTERNATIONAL TABLES FOR X-RAY CRYSTALLOGRAPHY)
 CRYSTAL FAMILY                       :  CUBIC       
 CRYSTAL CLASS  (GROTH - 1921)        :  CUBIC HEXAKISTETRAHEDRAL             

 SPACE GROUP (NONCENTROSYMMETRIC)     :  I -4 3 D        

 LATTICE PARAMETERS  (ANGSTROMS AND DEGREES) - CONVENTIONAL CELL
        A           B           C        ALPHA        BETA       GAMMA
    25.78119    25.78119    25.78119    90.00000    90.00000    90.00000


 NUMBER OF IRREDUCIBLE ATOMS IN THE CONVENTIONAL CELL:   13

 INPUT COORDINATES

 ATOM AT. N.              COORDINATES
   1   6     3.463115171294E-01  8.051202139064E-02  1.970946029597E-01
   2   1     3.767380003556E-01  7.600284625319E-02  1.680313219111E-01
   3   6     3.398178724755E-01  4.626614339943E-02  2.387536505293E-01
   4   6     2.975160043509E-01  5.622238851750E-02  2.716637360735E-01
   5   1     2.865307944353E-01  3.117167320213E-02  3.041898378478E-01
   6   7     2.670236941006E-01  9.693043889816E-02  2.647322400521E-01
   7   6     2.769934603083E-01  1.270573082409E-01  2.239507489762E-01
   8   6     2.417072556836E-01  1.707055821329E-01  2.164680836004E-01
   9   7     3.149208247467E-01  1.208083640465E-01  1.894590884526E-01
  10   7     2.022687471232E-01  1.761189089516E-01  2.499629045954E-01
  11  29    -5.993307023901E-02  5.522349122566E-02 -1.246732752565E-01
  12  17    -7.192083737507E-02  1.066909757627E-01 -1.879984942367E-01
  13   6     3.750000000000E-01 -7.267409631752E-17  2.500000000000E-01

 *******************************************************************************

 << INFORMATION >>: FROM NOW ON, ALL COORDINATES REFER TO THE PRIMITIVE CELL

 *******************************************************************************

 LATTICE PARAMETERS  (ANGSTROMS AND DEGREES) - PRIMITIVE CELL
       A          B          C        ALPHA      BETA     GAMMA        VOLUME
   22.32717   22.32717   22.32717   109.47122 109.47122 109.47122   8567.991658

 COORDINATES OF THE EQUIVALENT ATOMS (FRACTIONAL UNITS)

 N. ATOM EQUIV AT. N.          X                  Y                  Z

   1   1   1    6 C     2.77606624350E-01 -4.56593879911E-01  4.26823538520E-01
   2   1   2    6 C    -3.83417418431E-01 -1.49216914170E-01  7.31764614800E-02
   3   1   3    6 C     2.22393375650E-01 -3.50783085830E-01  2.65799495739E-01
   4   1   4    6 C    -1.16582581569E-01 -4.34061200891E-02  2.34200504261E-01
   5   1   5    6 C     4.26823538520E-01  2.77606624350E-01 -4.56593879911E-01
   6   1   6    6 C    -4.56593879911E-01  4.26823538520E-01  2.77606624350E-01
   7   1   7    6 C     2.34200504261E-01 -1.16582581569E-01 -4.34061200891E-02
   8   1   8    6 C    -1.49216914170E-01  7.31764614800E-02 -3.83417418431E-01
   9   1   9    6 C     7.31764614800E-02 -3.83417418431E-01 -1.49216914170E-01
  10   1  10    6 C    -3.50783085830E-01  2.65799495739E-01  2.22393375650E-01
  11   1  11    6 C     2.65799495739E-01  2.22393375650E-01 -3.50783085830E-01
  12   1  12    6 C    -4.34061200891E-02  2.34200504261E-01 -1.16582581569E-01
  13   1  13    6 C     4.34061200891E-02 -2.22393375650E-01 -7.31764614800E-02
  14   1  14    6 C     3.50783085830E-01  1.16582581569E-01 -4.26823538520E-01
  15   1  15    6 C     1.49216914170E-01 -2.77606624350E-01 -2.34200504261E-01
  16   1  16    6 C     4.56593879911E-01  3.83417418431E-01 -2.65799495739E-01
  17   1  17    6 C    -2.22393375650E-01 -7.31764614800E-02  4.34061200891E-02
  18   1  18    6 C    -7.31764614800E-02  4.34061200891E-02 -2.22393375650E-01
  19   1  19    6 C     3.83417418431E-01 -2.65799495739E-01  4.56593879911E-01
  20   1  20    6 C    -4.26823538520E-01  3.50783085830E-01  1.16582581569E-01
  21   1  21    6 C     1.16582581569E-01 -4.26823538520E-01  3.50783085830E-01
  22   1  22    6 C    -2.34200504261E-01  1.49216914170E-01 -2.77606624350E-01
  23   1  23    6 C    -2.77606624350E-01 -2.34200504261E-01  1.49216914170E-01
  24   1  24    6 C    -2.65799495739E-01  4.56593879911E-01  3.83417418431E-01

  25   2   1    1 H     2.44034168164E-01 -4.55230677733E-01  4.52740846609E-01
  26   2   2    1 H    -4.07971524342E-01 -2.08706678444E-01  4.72591533912E-02
  27   2   3    1 H     2.55965831836E-01 -2.91293321556E-01  3.00735154102E-01
  28   2   4    1 H    -9.20284756579E-02 -4.47693222667E-02  1.99264845898E-01
  29   2   5    1 H     4.52740846609E-01  2.44034168164E-01 -4.55230677733E-01
  30   2   6    1 H    -4.55230677733E-01  4.52740846609E-01  2.44034168164E-01
  31   2   7    1 H     1.99264845898E-01 -9.20284756579E-02 -4.47693222667E-02
  32   2   8    1 H    -2.08706678444E-01  4.72591533912E-02 -4.07971524342E-01
  33   2   9    1 H     4.72591533912E-02 -4.07971524342E-01 -2.08706678444E-01
  34   2  10    1 H    -2.91293321556E-01  3.00735154102E-01  2.55965831836E-01
  35   2  11    1 H     3.00735154102E-01  2.55965831836E-01 -2.91293321556E-01
  36   2  12    1 H    -4.47693222667E-02  1.99264845898E-01 -9.20284756579E-02
  37   2  13    1 H     4.47693222667E-02 -2.55965831836E-01 -4.72591533912E-02
  38   2  14    1 H     2.91293321556E-01  9.20284756579E-02 -4.52740846609E-01
  39   2  15    1 H     2.08706678444E-01 -2.44034168164E-01 -1.99264845898E-01
  40   2  16    1 H     4.55230677733E-01  4.07971524342E-01 -3.00735154102E-01
  41   2  17    1 H    -2.55965831836E-01 -4.72591533912E-02  4.47693222667E-02
  42   2  18    1 H    -4.72591533912E-02  4.47693222667E-02 -2.55965831836E-01
  43   2  19    1 H     4.07971524342E-01 -3.00735154102E-01  4.55230677733E-01
  44   2  20    1 H    -4.52740846609E-01  2.91293321556E-01  9.20284756579E-02
  45   2  21    1 H     9.20284756579E-02 -4.52740846609E-01  2.91293321556E-01
  46   2  22    1 H    -1.99264845898E-01  2.08706678444E-01 -2.44034168164E-01
  47   2  23    1 H    -2.44034168164E-01 -1.99264845898E-01  2.08706678444E-01
  48   2  24    1 H    -3.00735154102E-01  4.55230677733E-01  4.07971524342E-01

  49   3   1    6 C     2.85019793929E-01 -4.21428476995E-01  3.86084015875E-01
  50   3   2    6 C    -3.07512492870E-01 -1.01064221946E-01  1.13915984125E-01
  51   3   3    6 C     2.14980206071E-01 -3.98935778054E-01  2.93551729076E-01
  52   3   4    6 C    -1.92487507130E-01 -7.85715230048E-02  2.06448270924E-01
  53   3   5    6 C     3.86084015875E-01  2.85019793929E-01 -4.21428476995E-01
  54   3   6    6 C    -4.21428476995E-01  3.86084015875E-01  2.85019793929E-01
  55   3   7    6 C     2.06448270924E-01 -1.92487507130E-01 -7.85715230048E-02
  56   3   8    6 C    -1.01064221946E-01  1.13915984125E-01 -3.07512492870E-01
  57   3   9    6 C     1.13915984125E-01 -3.07512492870E-01 -1.01064221946E-01
  58   3  10    6 C    -3.98935778054E-01  2.93551729076E-01  2.14980206071E-01
  59   3  11    6 C     2.93551729076E-01  2.14980206071E-01 -3.98935778054E-01
  60   3  12    6 C    -7.85715230048E-02  2.06448270924E-01 -1.92487507130E-01
  61   3  13    6 C     7.85715230048E-02 -2.14980206071E-01 -1.13915984125E-01
  62   3  14    6 C     3.98935778054E-01  1.92487507130E-01 -3.86084015875E-01
  63   3  15    6 C     1.01064221946E-01 -2.85019793929E-01 -2.06448270924E-01
  64   3  16    6 C     4.21428476995E-01  3.07512492870E-01 -2.93551729076E-01
  65   3  17    6 C    -2.14980206071E-01 -1.13915984125E-01  7.85715230048E-02
  66   3  18    6 C    -1.13915984125E-01  7.85715230048E-02 -2.14980206071E-01
  67   3  19    6 C     3.07512492870E-01 -2.93551729076E-01  4.21428476995E-01
  68   3  20    6 C    -3.86084015875E-01  3.98935778054E-01  1.92487507130E-01
  69   3  21    6 C     1.92487507130E-01 -3.86084015875E-01  3.98935778054E-01
  70   3  22    6 C    -2.06448270924E-01  1.01064221946E-01 -2.85019793929E-01
  71   3  23    6 C    -2.85019793929E-01 -2.06448270924E-01  1.01064221946E-01
  72   3  24    6 C    -2.93551729076E-01  4.21428476995E-01  3.07512492870E-01

  73   4   1    6 C     3.27886124591E-01 -4.30820259576E-01  3.53738392868E-01
  74   4   2    6 C    -2.84558652444E-01 -2.58522682774E-02  1.46261607132E-01
  75   4   3    6 C     1.72113875409E-01 -4.74147731723E-01  2.41293615833E-01
  76   4   4    6 C    -2.15441347556E-01 -6.91797404244E-02  2.58706384167E-01
  77   4   5    6 C     3.53738392868E-01  3.27886124591E-01 -4.30820259576E-01
  78   4   6    6 C    -4.30820259576E-01  3.53738392868E-01  3.27886124591E-01
  79   4   7    6 C     2.58706384167E-01 -2.15441347556E-01 -6.91797404244E-02
  80   4   8    6 C    -2.58522682774E-02  1.46261607132E-01 -2.84558652444E-01
  81   4   9    6 C     1.46261607132E-01 -2.84558652444E-01 -2.58522682774E-02
  82   4  10    6 C    -4.74147731723E-01  2.41293615833E-01  1.72113875409E-01
  83   4  11    6 C     2.41293615833E-01  1.72113875409E-01 -4.74147731723E-01
  84   4  12    6 C    -6.91797404244E-02  2.58706384167E-01 -2.15441347556E-01
  85   4  13    6 C     6.91797404244E-02 -1.72113875409E-01 -1.46261607132E-01
  86   4  14    6 C     4.74147731723E-01  2.15441347556E-01 -3.53738392868E-01
  87   4  15    6 C     2.58522682774E-02 -3.27886124591E-01 -2.58706384167E-01
  88   4  16    6 C     4.30820259576E-01  2.84558652444E-01 -2.41293615833E-01
  89   4  17    6 C    -1.72113875409E-01 -1.46261607132E-01  6.91797404244E-02
  90   4  18    6 C    -1.46261607132E-01  6.91797404244E-02 -1.72113875409E-01
  91   4  19    6 C     2.84558652444E-01 -2.41293615833E-01  4.30820259576E-01
  92   4  20    6 C    -3.53738392868E-01  4.74147731723E-01  2.15441347556E-01
  93   4  21    6 C     2.15441347556E-01 -3.53738392868E-01  4.74147731723E-01
  94   4  22    6 C    -2.58706384167E-01  2.58522682774E-02 -3.27886124591E-01
  95   4  23    6 C    -3.27886124591E-01 -2.58706384167E-01  2.58522682774E-02
  96   4  24    6 C    -2.41293615833E-01  4.30820259576E-01  2.84558652444E-01

  97   5   1    1 H     3.35361511050E-01 -4.09279367717E-01  3.17702467637E-01
  98   5   2    1 H    -2.26981835354E-01  1.76590434125E-02  1.82297532363E-01
  99   5   3    1 H     1.64638488950E-01  4.82340956587E-01  2.55359121233E-01
 100   5   4    1 H    -2.73018164646E-01 -9.07206322831E-02  2.44640878767E-01
 101   5   5    1 H     3.17702467637E-01  3.35361511050E-01 -4.09279367717E-01
 102   5   6    1 H    -4.09279367717E-01  3.17702467637E-01  3.35361511050E-01
 103   5   7    1 H     2.44640878767E-01 -2.73018164646E-01 -9.07206322831E-02
 104   5   8    1 H     1.76590434125E-02  1.82297532363E-01 -2.26981835354E-01
 105   5   9    1 H     1.82297532363E-01 -2.26981835354E-01  1.76590434125E-02
 106   5  10    1 H     4.82340956587E-01  2.55359121233E-01  1.64638488950E-01
 107   5  11    1 H     2.55359121233E-01  1.64638488950E-01  4.82340956587E-01
 108   5  12    1 H    -9.07206322831E-02  2.44640878767E-01 -2.73018164646E-01
 109   5  13    1 H     9.07206322831E-02 -1.64638488950E-01 -1.82297532363E-01
 110   5  14    1 H    -4.82340956587E-01  2.73018164646E-01 -3.17702467637E-01
 111   5  15    1 H    -1.76590434125E-02 -3.35361511050E-01 -2.44640878767E-01
 112   5  16    1 H     4.09279367717E-01  2.26981835354E-01 -2.55359121233E-01
 113   5  17    1 H    -1.64638488950E-01 -1.82297532363E-01  9.07206322831E-02
 114   5  18    1 H    -1.82297532363E-01  9.07206322831E-02 -1.64638488950E-01
 115   5  19    1 H     2.26981835354E-01 -2.55359121233E-01  4.09279367717E-01
 116   5  20    1 H    -3.17702467637E-01 -4.82340956587E-01  2.73018164646E-01
 117   5  21    1 H     2.73018164646E-01 -3.17702467637E-01 -4.82340956587E-01
 118   5  22    1 H    -2.44640878767E-01 -1.76590434125E-02 -3.35361511050E-01
 119   5  23    1 H    -3.35361511050E-01 -2.44640878767E-01 -1.76590434125E-02
 120   5  24    1 H    -2.55359121233E-01  4.09279367717E-01  2.26981835354E-01

 121   6   1    7 N     3.61662678950E-01 -4.68244065847E-01  3.63954132999E-01
 122   6   2    7 N    -3.32198198846E-01 -2.29145404850E-03  1.36045867001E-01
 123   6   3    7 N     1.38337321050E-01 -4.97708545952E-01  1.70093255202E-01
 124   6   4    7 N    -1.67801801154E-01 -3.17559341527E-02  3.29906744798E-01
 125   6   5    7 N     3.63954132999E-01  3.61662678950E-01 -4.68244065847E-01
 126   6   6    7 N    -4.68244065847E-01  3.63954132999E-01  3.61662678950E-01
 127   6   7    7 N     3.29906744798E-01 -1.67801801154E-01 -3.17559341527E-02
 128   6   8    7 N    -2.29145404850E-03  1.36045867001E-01 -3.32198198846E-01
 129   6   9    7 N     1.36045867001E-01 -3.32198198846E-01 -2.29145404850E-03
 130   6  10    7 N    -4.97708545952E-01  1.70093255202E-01  1.38337321050E-01
 131   6  11    7 N     1.70093255202E-01  1.38337321050E-01 -4.97708545952E-01
 132   6  12    7 N    -3.17559341527E-02  3.29906744798E-01 -1.67801801154E-01
 133   6  13    7 N     3.17559341527E-02 -1.38337321050E-01 -1.36045867001E-01
 134   6  14    7 N     4.97708545951E-01  1.67801801154E-01 -3.63954132999E-01
 135   6  15    7 N     2.29145404850E-03 -3.61662678950E-01 -3.29906744798E-01
 136   6  16    7 N     4.68244065847E-01  3.32198198846E-01 -1.70093255202E-01
 137   6  17    7 N    -1.38337321050E-01 -1.36045867001E-01  3.17559341527E-02
 138   6  18    7 N    -1.36045867001E-01  3.17559341527E-02 -1.38337321050E-01
 139   6  19    7 N     3.32198198846E-01 -1.70093255202E-01  4.68244065847E-01
 140   6  20    7 N    -3.63954132999E-01  4.97708545951E-01  1.67801801154E-01
 141   6  21    7 N     1.67801801154E-01 -3.63954132999E-01  4.97708545951E-01
 142   6  22    7 N    -3.29906744798E-01  2.29145404850E-03 -3.61662678950E-01
 143   6  23    7 N    -3.61662678950E-01 -3.29906744798E-01  2.29145404850E-03
 144   6  24    7 N    -1.70093255202E-01  4.68244065847E-01  3.32198198846E-01

 145   7   1    6 C     3.51008057217E-01 -4.99055790715E-01  4.04050768549E-01
 146   7   2    6 C    -4.03106559265E-01 -5.30427113321E-02  9.59492314508E-02
 147   7   3    6 C     1.48991942783E-01 -4.46957288668E-01  1.49936152067E-01
 148   7   4    6 C    -9.68934407353E-02 -9.44209284500E-04  3.50063847933E-01
 149   7   5    6 C     4.04050768549E-01  3.51008057217E-01 -4.99055790715E-01
 150   7   6    6 C    -4.99055790715E-01  4.04050768549E-01  3.51008057217E-01
 151   7   7    6 C     3.50063847933E-01 -9.68934407353E-02 -9.44209284500E-04
 152   7   8    6 C    -5.30427113321E-02  9.59492314508E-02 -4.03106559265E-01
 153   7   9    6 C     9.59492314508E-02 -4.03106559265E-01 -5.30427113321E-02
 154   7  10    6 C    -4.46957288668E-01  1.49936152067E-01  1.48991942783E-01
 155   7  11    6 C     1.49936152067E-01  1.48991942783E-01 -4.46957288668E-01
 156   7  12    6 C    -9.44209284500E-04  3.50063847933E-01 -9.68934407353E-02
 157   7  13    6 C     9.44209284500E-04 -1.48991942783E-01 -9.59492314508E-02
 158   7  14    6 C     4.46957288668E-01  9.68934407353E-02 -4.04050768549E-01
 159   7  15    6 C     5.30427113321E-02 -3.51008057217E-01 -3.50063847933E-01
 160   7  16    6 C     4.99055790715E-01  4.03106559265E-01 -1.49936152067E-01
 161   7  17    6 C    -1.48991942783E-01 -9.59492314508E-02  9.44209284500E-04
 162   7  18    6 C    -9.59492314508E-02  9.44209284500E-04 -1.48991942783E-01
 163   7  19    6 C     4.03106559265E-01 -1.49936152067E-01  4.99055790715E-01
 164   7  20    6 C    -4.04050768549E-01  4.46957288668E-01  9.68934407353E-02
 165   7  21    6 C     9.68934407353E-02 -4.04050768549E-01  4.46957288668E-01
 166   7  22    6 C    -3.50063847933E-01  5.30427113321E-02 -3.51008057217E-01
 167   7  23    6 C    -3.51008057217E-01 -3.50063847933E-01  5.30427113321E-02
 168   7  24    6 C    -1.49936152067E-01  4.99055790715E-01  4.03106559265E-01

 169   8   1    6 C     3.87173665733E-01  4.58175339284E-01  4.12412837816E-01
 170   8   2    6 C    -4.54237498532E-01 -2.52391720832E-02  8.75871621835E-02
 171   8   3    6 C     1.12826334267E-01 -4.74760827917E-01  7.10016735507E-02
 172   8   4    6 C    -4.57625014675E-02  4.18246607160E-02  4.28998326449E-01
 173   8   5    6 C     4.12412837816E-01  3.87173665733E-01  4.58175339284E-01
 174   8   6    6 C     4.58175339284E-01  4.12412837816E-01  3.87173665733E-01
 175   8   7    6 C     4.28998326449E-01 -4.57625014675E-02  4.18246607160E-02
 176   8   8    6 C    -2.52391720832E-02  8.75871621835E-02 -4.54237498532E-01
 177   8   9    6 C     8.75871621835E-02 -4.54237498532E-01 -2.52391720832E-02
 178   8  10    6 C    -4.74760827917E-01  7.10016735507E-02  1.12826334267E-01
 179   8  11    6 C     7.10016735507E-02  1.12826334267E-01 -4.74760827917E-01
 180   8  12    6 C     4.18246607160E-02  4.28998326449E-01 -4.57625014675E-02
 181   8  13    6 C    -4.18246607160E-02 -1.12826334267E-01 -8.75871621835E-02
 182   8  14    6 C     4.74760827917E-01  4.57625014675E-02 -4.12412837816E-01
 183   8  15    6 C     2.52391720832E-02 -3.87173665733E-01 -4.28998326449E-01
 184   8  16    6 C    -4.58175339284E-01  4.54237498532E-01 -7.10016735507E-02
 185   8  17    6 C    -1.12826334267E-01 -8.75871621835E-02 -4.18246607160E-02
 186   8  18    6 C    -8.75871621835E-02 -4.18246607160E-02 -1.12826334267E-01
 187   8  19    6 C     4.54237498532E-01 -7.10016735507E-02 -4.58175339284E-01
 188   8  20    6 C    -4.12412837816E-01  4.74760827917E-01  4.57625014675E-02
 189   8  21    6 C     4.57625014675E-02 -4.12412837816E-01  4.74760827917E-01
 190   8  22    6 C    -4.28998326449E-01  2.52391720832E-02 -3.87173665733E-01
 191   8  23    6 C    -3.87173665733E-01 -4.28998326449E-01  2.52391720832E-02
 192   8  24    6 C    -7.10016735507E-02 -4.58175339284E-01  4.54237498532E-01

 193   9   1    7 N     3.10267452499E-01 -4.95620086801E-01  4.35729188793E-01
 194   9   2    7 N    -4.31349275594E-01 -1.25461736294E-01  6.42708112068E-02
 195   9   3    7 N     1.89732547501E-01 -3.74538263706E-01  1.94112460700E-01
 196   9   4    7 N    -6.86507244061E-02 -4.37991319930E-03  3.05887539300E-01
 197   9   5    7 N     4.35729188793E-01  3.10267452499E-01 -4.95620086801E-01
 198   9   6    7 N    -4.95620086801E-01  4.35729188793E-01  3.10267452499E-01
 199   9   7    7 N     3.05887539300E-01 -6.86507244061E-02 -4.37991319930E-03
 200   9   8    7 N    -1.25461736294E-01  6.42708112068E-02 -4.31349275594E-01
 201   9   9    7 N     6.42708112068E-02 -4.31349275594E-01 -1.25461736294E-01
 202   9  10    7 N    -3.74538263706E-01  1.94112460700E-01  1.89732547501E-01
 203   9  11    7 N     1.94112460700E-01  1.89732547501E-01 -3.74538263706E-01
 204   9  12    7 N    -4.37991319930E-03  3.05887539300E-01 -6.86507244061E-02
 205   9  13    7 N     4.37991319930E-03 -1.89732547501E-01 -6.42708112068E-02
 206   9  14    7 N     3.74538263706E-01  6.86507244061E-02 -4.35729188793E-01
 207   9  15    7 N     1.25461736294E-01 -3.10267452499E-01 -3.05887539300E-01
 208   9  16    7 N     4.95620086801E-01  4.31349275594E-01 -1.94112460700E-01
 209   9  17    7 N    -1.89732547501E-01 -6.42708112068E-02  4.37991319930E-03
 210   9  18    7 N    -6.42708112068E-02  4.37991319930E-03 -1.89732547501E-01
 211   9  19    7 N     4.31349275594E-01 -1.94112460700E-01  4.95620086801E-01
 212   9  20    7 N    -4.35729188793E-01  3.74538263706E-01  6.86507244061E-02
 213   9  21    7 N     6.86507244061E-02 -4.35729188793E-01  3.74538263706E-01
 214   9  22    7 N    -3.05887539300E-01  1.25461736294E-01 -3.10267452499E-01
 215   9  23    7 N    -3.10267452499E-01 -3.05887539300E-01  1.25461736294E-01
 216   9  24    7 N    -1.94112460700E-01  4.95620086801E-01  4.31349275594E-01

 217  10   1    7 N     4.26081813547E-01  4.52231651719E-01  3.78387656075E-01
 218  10   2    7 N    -4.26156004356E-01  4.76941574722E-02  1.21612343925E-01
 219  10   3    7 N     7.39181864530E-02  4.52305842528E-01  2.61498381716E-02
 220  10   4    7 N    -7.38439956438E-02  4.77683482814E-02  4.73850161828E-01
 221  10   5    7 N     3.78387656075E-01  4.26081813547E-01  4.52231651719E-01
 222  10   6    7 N     4.52231651719E-01  3.78387656075E-01  4.26081813547E-01
 223  10   7    7 N     4.73850161828E-01 -7.38439956438E-02  4.77683482814E-02
 224  10   8    7 N     4.76941574722E-02  1.21612343925E-01 -4.26156004356E-01
 225  10   9    7 N     1.21612343925E-01 -4.26156004356E-01  4.76941574722E-02
 226  10  10    7 N     4.52305842528E-01  2.61498381716E-02  7.39181864530E-02
 227  10  11    7 N     2.61498381716E-02  7.39181864530E-02  4.52305842528E-01
 228  10  12    7 N     4.77683482814E-02  4.73850161828E-01 -7.38439956438E-02
 229  10  13    7 N    -4.77683482814E-02 -7.39181864530E-02 -1.21612343925E-01
 230  10  14    7 N    -4.52305842528E-01  7.38439956438E-02 -3.78387656075E-01
 231  10  15    7 N    -4.76941574722E-02 -4.26081813547E-01 -4.73850161828E-01
 232  10  16    7 N    -4.52231651719E-01  4.26156004356E-01 -2.61498381716E-02
 233  10  17    7 N    -7.39181864530E-02 -1.21612343925E-01 -4.77683482814E-02
 234  10  18    7 N    -1.21612343925E-01 -4.77683482814E-02 -7.39181864530E-02
 235  10  19    7 N     4.26156004356E-01 -2.61498381716E-02 -4.52231651719E-01
 236  10  20    7 N    -3.78387656075E-01 -4.52305842528E-01  7.38439956438E-02
 237  10  21    7 N     7.38439956438E-02 -3.78387656075E-01 -4.52305842528E-01
 238  10  22    7 N    -4.73850161828E-01 -4.76941574722E-02 -4.26081813547E-01
 239  10  23    7 N    -4.26081813547E-01 -4.73850161828E-01 -4.76941574722E-02
 240  10  24    7 N    -2.61498381716E-02 -4.52231651719E-01  4.26156004356E-01

 241  11   1   29 CU   -6.94497840308E-02 -1.84606345496E-01 -4.70957901335E-03
 242  11   2   29 CU    3.20103233518E-01 -6.47402050175E-02 -4.95290420987E-01
 243  11   3   29 CU   -4.30550215969E-01 -4.35259794983E-01 -1.15156561465E-01
 244  11   4   29 CU    1.79896766482E-01 -3.15393654504E-01 -3.84843438535E-01
 245  11   5   29 CU   -4.70957901335E-03 -6.94497840308E-02 -1.84606345496E-01
 246  11   6   29 CU   -1.84606345496E-01 -4.70957901335E-03 -6.94497840308E-02
 247  11   7   29 CU   -3.84843438535E-01  1.79896766482E-01 -3.15393654504E-01
 248  11   8   29 CU   -6.47402050175E-02 -4.95290420987E-01  3.20103233518E-01
 249  11   9   29 CU   -4.95290420987E-01  3.20103233518E-01 -6.47402050175E-02
 250  11  10   29 CU   -4.35259794983E-01 -1.15156561465E-01 -4.30550215969E-01
 251  11  11   29 CU   -1.15156561465E-01 -4.30550215969E-01 -4.35259794983E-01
 252  11  12   29 CU   -3.15393654504E-01 -3.84843438535E-01  1.79896766482E-01
 253  11  13   29 CU    3.15393654504E-01  4.30550215969E-01  4.95290420987E-01
 254  11  14   29 CU    4.35259794983E-01 -1.79896766482E-01  4.70957901335E-03
 255  11  15   29 CU    6.47402050175E-02  6.94497840308E-02  3.84843438535E-01
 256  11  16   29 CU    1.84606345496E-01 -3.20103233518E-01  1.15156561465E-01
 257  11  17   29 CU    4.30550215969E-01  4.95290420987E-01  3.15393654504E-01
 258  11  18   29 CU    4.95290420987E-01  3.15393654504E-01  4.30550215969E-01
 259  11  19   29 CU   -3.20103233518E-01  1.15156561465E-01  1.84606345496E-01
 260  11  20   29 CU    4.70957901335E-03  4.35259794983E-01 -1.79896766482E-01
 261  11  21   29 CU   -1.79896766482E-01  4.70957901335E-03  4.35259794983E-01
 262  11  22   29 CU    3.84843438535E-01  6.47402050175E-02  6.94497840308E-02
 263  11  23   29 CU    6.94497840308E-02  3.84843438535E-01  6.47402050175E-02
 264  11  24   29 CU    1.15156561465E-01  1.84606345496E-01 -3.20103233518E-01

 265  12   1   17 CL   -8.13075184740E-02 -2.59919331612E-01  3.47701383876E-02
 266  12   2   17 CL    2.05310530001E-01 -1.16077656862E-01  4.65229861612E-01
 267  12   3   17 CL   -4.18692481526E-01 -3.83922343138E-01 -1.78611813138E-01
 268  12   4   17 CL    2.94689469999E-01 -2.40080668388E-01 -3.21388186862E-01
 269  12   5   17 CL    3.47701383876E-02 -8.13075184740E-02 -2.59919331612E-01
 270  12   6   17 CL   -2.59919331612E-01  3.47701383876E-02 -8.13075184740E-02
 271  12   7   17 CL   -3.21388186862E-01  2.94689469999E-01 -2.40080668388E-01
 272  12   8   17 CL   -1.16077656862E-01  4.65229861612E-01  2.05310530001E-01
 273  12   9   17 CL    4.65229861612E-01  2.05310530001E-01 -1.16077656862E-01
 274  12  10   17 CL   -3.83922343138E-01 -1.78611813138E-01 -4.18692481526E-01
 275  12  11   17 CL   -1.78611813138E-01 -4.18692481526E-01 -3.83922343138E-01
 276  12  12   17 CL   -2.40080668388E-01 -3.21388186862E-01  2.94689469999E-01
 277  12  13   17 CL    2.40080668388E-01  4.18692481526E-01 -4.65229861612E-01
 278  12  14   17 CL    3.83922343138E-01 -2.94689469999E-01 -3.47701383876E-02
 279  12  15   17 CL    1.16077656862E-01  8.13075184740E-02  3.21388186862E-01
 280  12  16   17 CL    2.59919331612E-01 -2.05310530001E-01  1.78611813138E-01
 281  12  17   17 CL    4.18692481526E-01 -4.65229861612E-01  2.40080668388E-01
 282  12  18   17 CL   -4.65229861612E-01  2.40080668388E-01  4.18692481526E-01
 283  12  19   17 CL   -2.05310530001E-01  1.78611813138E-01  2.59919331612E-01
 284  12  20   17 CL   -3.47701383876E-02  3.83922343138E-01 -2.94689469999E-01
 285  12  21   17 CL   -2.94689469999E-01 -3.47701383876E-02  3.83922343138E-01
 286  12  22   17 CL    3.21388186862E-01  1.16077656862E-01  8.13075184740E-02
 287  12  23   17 CL    8.13075184740E-02  3.21388186862E-01  1.16077656862E-01
 288  12  24   17 CL    1.78611813138E-01  2.59919331612E-01 -2.05310530001E-01

 289  13   1    6 C     2.50000000000E-01 -3.75000000000E-01  3.75000000000E-01
 290  13   2    6 C    -2.50000000000E-01 -1.25000000000E-01  1.25000000000E-01
 291  13   3    6 C     3.75000000000E-01  2.50000000000E-01 -3.75000000000E-01
 292  13   4    6 C    -3.75000000000E-01  3.75000000000E-01  2.50000000000E-01
 293  13   5    6 C     1.25000000000E-01 -2.50000000000E-01 -1.25000000000E-01
 294  13   6    6 C    -1.25000000000E-01  1.25000000000E-01 -2.50000000000E-01

 NUMBER OF SYMMETRY OPERATORS         :   24
 *******************************************************************************
 * GEOMETRY EDITING - INPUT COORDINATES ARE GIVEN IN ANGSTROM         
 *******************************************************************************

 GEOMETRY NOW FULLY CONSISTENT WITH THE GROUP

 GCALCO - MAX INDICES DIRECT LATTICE VECTOR    14    14    14
 NO.OF VECTORS CREATED 6999 STARS  122 RMAX   459.61785 BOHR

 GEOMETRY FOR WAVE FUNCTION - DIMENSIONALITY OF THE SYSTEM    3
 (NON PERIODIC DIRECTION: LATTICE PARAMETER FORMALLY SET TO 500)
 *******************************************************************************
 LATTICE PARAMETERS (ANGSTROMS AND DEGREES) - BOHR = 0.5291772083 ANGSTROM
 PRIMITIVE CELL - CENTRING CODE 6/0 VOLUME=  8567.991658 - DENSITY  0.953 g/cm^3
         A              B              C           ALPHA      BETA       GAMMA 
    22.32716809    22.32716809    22.32716809   109.471221 109.471221 109.471221
 *******************************************************************************
 ATOMS IN THE ASYMMETRIC UNIT   13 - ATOMS IN THE UNIT CELL:  294
     ATOM                 X/A                 Y/B                 Z/C    
 *******************************************************************************
      1 T   6 C     2.776066243503E-01 -4.565938799109E-01  4.268235385200E-01
      2 F   6 C    -3.834174184309E-01 -1.492169141697E-01  7.317646147996E-02
      3 F   6 C     2.223933756497E-01 -3.507830858303E-01  2.657994957388E-01
      4 F   6 C    -1.165825815691E-01 -4.340612008910E-02  2.342005042612E-01
      5 F   6 C     4.268235385200E-01  2.776066243503E-01 -4.565938799109E-01
      6 F   6 C    -4.565938799109E-01  4.268235385200E-01  2.776066243503E-01
      7 F   6 C     2.342005042612E-01 -1.165825815691E-01 -4.340612008910E-02
      8 F   6 C    -1.492169141697E-01  7.317646147996E-02 -3.834174184309E-01
      9 F   6 C     7.317646147996E-02 -3.834174184309E-01 -1.492169141697E-01
     10 F   6 C    -3.507830858303E-01  2.657994957388E-01  2.223933756497E-01
     11 F   6 C     2.657994957388E-01  2.223933756497E-01 -3.507830858303E-01
     12 F   6 C    -4.340612008910E-02  2.342005042612E-01 -1.165825815691E-01
     13 F   6 C     4.340612008910E-02 -2.223933756497E-01 -7.317646147996E-02
     14 F   6 C     3.507830858303E-01  1.165825815691E-01 -4.268235385200E-01
     15 F   6 C     1.492169141697E-01 -2.776066243503E-01 -2.342005042612E-01
     16 F   6 C     4.565938799109E-01  3.834174184309E-01 -2.657994957388E-01
     17 F   6 C    -2.223933756497E-01 -7.317646147996E-02  4.340612008910E-02
     18 F   6 C    -7.317646147996E-02  4.340612008910E-02 -2.223933756497E-01
     19 F   6 C     3.834174184309E-01 -2.657994957388E-01  4.565938799109E-01
     20 F   6 C    -4.268235385200E-01  3.507830858303E-01  1.165825815691E-01
     21 F   6 C     1.165825815691E-01 -4.268235385200E-01  3.507830858303E-01
     22 F   6 C    -2.342005042612E-01  1.492169141697E-01 -2.776066243503E-01
     23 F   6 C    -2.776066243503E-01 -2.342005042612E-01  1.492169141697E-01
     24 F   6 C    -2.657994957388E-01  4.565938799109E-01  3.834174184309E-01
     25 T   1 H     2.440341681643E-01 -4.552306777333E-01  4.527408466088E-01
     26 F   1 H    -4.079715243421E-01 -2.087066784445E-01  4.725915339121E-02
     27 F   1 H     2.559658318357E-01 -2.912933215555E-01  3.007351541024E-01
     28 F   1 H    -9.202847565791E-02 -4.476932226670E-02  1.992648458976E-01
     29 F   1 H     4.527408466088E-01  2.440341681643E-01 -4.552306777333E-01
     30 F   1 H    -4.552306777333E-01  4.527408466088E-01  2.440341681643E-01
     31 F   1 H     1.992648458976E-01 -9.202847565791E-02 -4.476932226670E-02
     32 F   1 H    -2.087066784445E-01  4.725915339121E-02 -4.079715243421E-01
     33 F   1 H     4.725915339121E-02 -4.079715243421E-01 -2.087066784445E-01
     34 F   1 H    -2.912933215555E-01  3.007351541024E-01  2.559658318357E-01
     35 F   1 H     3.007351541024E-01  2.559658318357E-01 -2.912933215555E-01
     36 F   1 H    -4.476932226670E-02  1.992648458976E-01 -9.202847565791E-02
     37 F   1 H     4.476932226670E-02 -2.559658318357E-01 -4.725915339121E-02
     38 F   1 H     2.912933215555E-01  9.202847565791E-02 -4.527408466088E-01
     39 F   1 H     2.087066784445E-01 -2.440341681643E-01 -1.992648458976E-01
     40 F   1 H     4.552306777333E-01  4.079715243421E-01 -3.007351541024E-01
     41 F   1 H    -2.559658318357E-01 -4.725915339121E-02  4.476932226670E-02
     42 F   1 H    -4.725915339121E-02  4.476932226670E-02 -2.559658318357E-01
     43 F   1 H     4.079715243421E-01 -3.007351541024E-01  4.552306777333E-01
     44 F   1 H    -4.527408466088E-01  2.912933215555E-01  9.202847565791E-02
     45 F   1 H     9.202847565791E-02 -4.527408466088E-01  2.912933215555E-01
     46 F   1 H    -1.992648458976E-01  2.087066784445E-01 -2.440341681643E-01
     47 F   1 H    -2.440341681643E-01 -1.992648458976E-01  2.087066784445E-01
     48 F   1 H    -3.007351541024E-01  4.552306777333E-01  4.079715243421E-01
     49 T   6 C     2.850197939287E-01 -4.214284769952E-01  3.860840158749E-01
     50 F   6 C    -3.075124928701E-01 -1.010642219462E-01  1.139159841251E-01
     51 F   6 C     2.149802060713E-01 -3.989357780538E-01  2.935517290761E-01
     52 F   6 C    -1.924875071299E-01 -7.857152300480E-02  2.064482709239E-01
     53 F   6 C     3.860840158749E-01  2.850197939287E-01 -4.214284769952E-01
     54 F   6 C    -4.214284769952E-01  3.860840158749E-01  2.850197939287E-01
     55 F   6 C     2.064482709239E-01 -1.924875071299E-01 -7.857152300480E-02
     56 F   6 C    -1.010642219462E-01  1.139159841251E-01 -3.075124928701E-01
     57 F   6 C     1.139159841251E-01 -3.075124928701E-01 -1.010642219462E-01
     58 F   6 C    -3.989357780538E-01  2.935517290761E-01  2.149802060713E-01
     59 F   6 C     2.935517290761E-01  2.149802060713E-01 -3.989357780538E-01
     60 F   6 C    -7.857152300480E-02  2.064482709239E-01 -1.924875071299E-01
     61 F   6 C     7.857152300480E-02 -2.149802060713E-01 -1.139159841251E-01
     62 F   6 C     3.989357780538E-01  1.924875071299E-01 -3.860840158749E-01
     63 F   6 C     1.010642219462E-01 -2.850197939287E-01 -2.064482709239E-01
     64 F   6 C     4.214284769952E-01  3.075124928701E-01 -2.935517290761E-01
     65 F   6 C    -2.149802060713E-01 -1.139159841251E-01  7.857152300480E-02
     66 F   6 C    -1.139159841251E-01  7.857152300480E-02 -2.149802060713E-01
     67 F   6 C     3.075124928701E-01 -2.935517290761E-01  4.214284769952E-01
     68 F   6 C    -3.860840158749E-01  3.989357780538E-01  1.924875071299E-01
     69 F   6 C     1.924875071299E-01 -3.860840158749E-01  3.989357780538E-01
     70 F   6 C    -2.064482709239E-01  1.010642219462E-01 -2.850197939287E-01
     71 F   6 C    -2.850197939287E-01 -2.064482709239E-01  1.010642219462E-01
     72 F   6 C    -2.935517290761E-01  4.214284769952E-01  3.075124928701E-01
     73 T   6 C     3.278861245910E-01 -4.308202595756E-01  3.537383928684E-01
     74 F   6 C    -2.845586524440E-01 -2.585226827740E-02  1.462616071316E-01
     75 F   6 C     1.721138754090E-01 -4.741477317226E-01  2.412936158334E-01
     76 F   6 C    -2.154413475560E-01 -6.917974042440E-02  2.587063841666E-01
     77 F   6 C     3.537383928684E-01  3.278861245910E-01 -4.308202595756E-01
     78 F   6 C    -4.308202595756E-01  3.537383928684E-01  3.278861245910E-01
     79 F   6 C     2.587063841666E-01 -2.154413475560E-01 -6.917974042440E-02
     80 F   6 C    -2.585226827740E-02  1.462616071316E-01 -2.845586524440E-01
     81 F   6 C     1.462616071316E-01 -2.845586524440E-01 -2.585226827740E-02
     82 F   6 C    -4.741477317226E-01  2.412936158334E-01  1.721138754090E-01
     83 F   6 C     2.412936158334E-01  1.721138754090E-01 -4.741477317226E-01
     84 F   6 C    -6.917974042440E-02  2.587063841666E-01 -2.154413475560E-01
     85 F   6 C     6.917974042440E-02 -1.721138754090E-01 -1.462616071316E-01
     86 F   6 C     4.741477317226E-01  2.154413475560E-01 -3.537383928684E-01
     87 F   6 C     2.585226827740E-02 -3.278861245910E-01 -2.587063841666E-01
     88 F   6 C     4.308202595756E-01  2.845586524440E-01 -2.412936158334E-01
     89 F   6 C    -1.721138754090E-01 -1.462616071316E-01  6.917974042440E-02
     90 F   6 C    -1.462616071316E-01  6.917974042440E-02 -1.721138754090E-01
     91 F   6 C     2.845586524440E-01 -2.412936158334E-01  4.308202595756E-01
     92 F   6 C    -3.537383928684E-01  4.741477317226E-01  2.154413475560E-01
     93 F   6 C     2.154413475560E-01 -3.537383928684E-01  4.741477317226E-01
     94 F   6 C    -2.587063841666E-01  2.585226827740E-02 -3.278861245910E-01
     95 F   6 C    -3.278861245910E-01 -2.587063841666E-01  2.585226827740E-02
     96 F   6 C    -2.412936158334E-01  4.308202595756E-01  2.845586524440E-01
     97 T   1 H     3.353615110499E-01 -4.092793677169E-01  3.177024676374E-01
     98 F   1 H    -2.269818353543E-01  1.765904341250E-02  1.822975323626E-01
     99 F   1 H     1.646384889501E-01  4.823409565875E-01  2.553591212332E-01
    100 F   1 H    -2.730181646457E-01 -9.072063228310E-02  2.446408787668E-01
    101 F   1 H     3.177024676374E-01  3.353615110499E-01 -4.092793677169E-01
    102 F   1 H    -4.092793677169E-01  3.177024676374E-01  3.353615110499E-01
    103 F   1 H     2.446408787668E-01 -2.730181646457E-01 -9.072063228310E-02
    104 F   1 H     1.765904341250E-02  1.822975323626E-01 -2.269818353543E-01
    105 F   1 H     1.822975323626E-01 -2.269818353543E-01  1.765904341250E-02
    106 F   1 H     4.823409565875E-01  2.553591212332E-01  1.646384889501E-01
    107 F   1 H     2.553591212332E-01  1.646384889501E-01  4.823409565875E-01
    108 F   1 H    -9.072063228310E-02  2.446408787668E-01 -2.730181646457E-01
    109 F   1 H     9.072063228310E-02 -1.646384889501E-01 -1.822975323626E-01
    110 F   1 H    -4.823409565875E-01  2.730181646457E-01 -3.177024676374E-01
    111 F   1 H    -1.765904341250E-02 -3.353615110499E-01 -2.446408787668E-01
    112 F   1 H     4.092793677169E-01  2.269818353543E-01 -2.553591212332E-01
    113 F   1 H    -1.646384889501E-01 -1.822975323626E-01  9.072063228310E-02
    114 F   1 H    -1.822975323626E-01  9.072063228310E-02 -1.646384889501E-01
    115 F   1 H     2.269818353543E-01 -2.553591212332E-01  4.092793677169E-01
    116 F   1 H    -3.177024676374E-01 -4.823409565875E-01  2.730181646457E-01
    117 F   1 H     2.730181646457E-01 -3.177024676374E-01 -4.823409565875E-01
    118 F   1 H    -2.446408787668E-01 -1.765904341250E-02 -3.353615110499E-01
    119 F   1 H    -3.353615110499E-01 -2.446408787668E-01 -1.765904341250E-02
    120 F   1 H    -2.553591212332E-01  4.092793677169E-01  2.269818353543E-01
    121 T   7 N     3.616626789503E-01 -4.682440658473E-01  3.639541329988E-01
    122 F   7 N    -3.321981988461E-01 -2.291454048500E-03  1.360458670012E-01
    123 F   7 N     1.383373210497E-01 -4.977085459515E-01  1.700932552024E-01
    124 F   7 N    -1.678018011539E-01 -3.175593415270E-02  3.299067447976E-01
    125 F   7 N     3.639541329988E-01  3.616626789503E-01 -4.682440658473E-01
    126 F   7 N    -4.682440658473E-01  3.639541329988E-01  3.616626789503E-01
    127 F   7 N     3.299067447976E-01 -1.678018011539E-01 -3.175593415270E-02
    128 F   7 N    -2.291454048500E-03  1.360458670012E-01 -3.321981988461E-01
    129 F   7 N     1.360458670012E-01 -3.321981988461E-01 -2.291454048500E-03
    130 F   7 N    -4.977085459515E-01  1.700932552024E-01  1.383373210497E-01
    131 F   7 N     1.700932552024E-01  1.383373210497E-01 -4.977085459515E-01
    132 F   7 N    -3.175593415270E-02  3.299067447976E-01 -1.678018011539E-01
    133 F   7 N     3.175593415270E-02 -1.383373210497E-01 -1.360458670012E-01
    134 F   7 N     4.977085459515E-01  1.678018011539E-01 -3.639541329988E-01
    135 F   7 N     2.291454048500E-03 -3.616626789503E-01 -3.299067447976E-01
    136 F   7 N     4.682440658473E-01  3.321981988461E-01 -1.700932552024E-01
    137 F   7 N    -1.383373210497E-01 -1.360458670012E-01  3.175593415270E-02
    138 F   7 N    -1.360458670012E-01  3.175593415270E-02 -1.383373210497E-01
    139 F   7 N     3.321981988461E-01 -1.700932552024E-01  4.682440658473E-01
    140 F   7 N    -3.639541329988E-01  4.977085459515E-01  1.678018011539E-01
    141 F   7 N     1.678018011539E-01 -3.639541329988E-01  4.977085459515E-01
    142 F   7 N    -3.299067447976E-01  2.291454048500E-03 -3.616626789503E-01
    143 F   7 N    -3.616626789503E-01 -3.299067447976E-01  2.291454048500E-03
    144 F   7 N    -1.700932552024E-01  4.682440658473E-01  3.321981988461E-01
    145 T   6 C     3.510080572171E-01 -4.990557907155E-01  4.040507685492E-01
    146 F   6 C    -4.031065592647E-01 -5.304271133210E-02  9.594923145080E-02
    147 F   6 C     1.489919427829E-01 -4.469572886679E-01  1.499361520674E-01
    148 F   6 C    -9.689344073530E-02 -9.442092845001E-04  3.500638479326E-01
    149 F   6 C     4.040507685492E-01  3.510080572171E-01 -4.990557907155E-01
    150 F   6 C    -4.990557907155E-01  4.040507685492E-01  3.510080572171E-01
    151 F   6 C     3.500638479326E-01 -9.689344073530E-02 -9.442092845001E-04
    152 F   6 C    -5.304271133210E-02  9.594923145080E-02 -4.031065592647E-01
    153 F   6 C     9.594923145080E-02 -4.031065592647E-01 -5.304271133210E-02
    154 F   6 C    -4.469572886679E-01  1.499361520674E-01  1.489919427829E-01
    155 F   6 C     1.499361520674E-01  1.489919427829E-01 -4.469572886679E-01
    156 F   6 C    -9.442092845000E-04  3.500638479326E-01 -9.689344073530E-02
    157 F   6 C     9.442092845000E-04 -1.489919427829E-01 -9.594923145080E-02
    158 F   6 C     4.469572886679E-01  9.689344073530E-02 -4.040507685492E-01
    159 F   6 C     5.304271133210E-02 -3.510080572171E-01 -3.500638479326E-01
    160 F   6 C     4.990557907155E-01  4.031065592647E-01 -1.499361520674E-01
    161 F   6 C    -1.489919427829E-01 -9.594923145080E-02  9.442092845002E-04
    162 F   6 C    -9.594923145080E-02  9.442092845002E-04 -1.489919427829E-01
    163 F   6 C     4.031065592647E-01 -1.499361520674E-01  4.990557907155E-01
    164 F   6 C    -4.040507685492E-01  4.469572886679E-01  9.689344073530E-02
    165 F   6 C     9.689344073530E-02 -4.040507685492E-01  4.469572886679E-01
    166 F   6 C    -3.500638479326E-01  5.304271133210E-02 -3.510080572171E-01
    167 F   6 C    -3.510080572171E-01 -3.500638479326E-01  5.304271133210E-02
    168 F   6 C    -1.499361520674E-01  4.990557907155E-01  4.031065592647E-01
    169 T   6 C     3.871736657333E-01  4.581753392840E-01  4.124128378165E-01
    170 F   6 C    -4.542374985325E-01 -2.523917208320E-02  8.758716218350E-02
    171 F   6 C     1.128263342667E-01 -4.747608279168E-01  7.100167355070E-02
    172 F   6 C    -4.576250146750E-02  4.182466071600E-02  4.289983264493E-01
    173 F   6 C     4.124128378165E-01  3.871736657333E-01  4.581753392840E-01
    174 F   6 C     4.581753392840E-01  4.124128378165E-01  3.871736657333E-01
    175 F   6 C     4.289983264493E-01 -4.576250146750E-02  4.182466071600E-02
    176 F   6 C    -2.523917208320E-02  8.758716218350E-02 -4.542374985325E-01
    177 F   6 C     8.758716218350E-02 -4.542374985325E-01 -2.523917208320E-02
    178 F   6 C    -4.747608279168E-01  7.100167355070E-02  1.128263342667E-01
    179 F   6 C     7.100167355070E-02  1.128263342667E-01 -4.747608279168E-01
    180 F   6 C     4.182466071600E-02  4.289983264493E-01 -4.576250146750E-02
    181 F   6 C    -4.182466071600E-02 -1.128263342667E-01 -8.758716218350E-02
    182 F   6 C     4.747608279168E-01  4.576250146750E-02 -4.124128378165E-01
    183 F   6 C     2.523917208320E-02 -3.871736657333E-01 -4.289983264493E-01
    184 F   6 C    -4.581753392840E-01  4.542374985325E-01 -7.100167355070E-02
    185 F   6 C    -1.128263342667E-01 -8.758716218350E-02 -4.182466071600E-02
    186 F   6 C    -8.758716218350E-02 -4.182466071600E-02 -1.128263342667E-01
    187 F   6 C     4.542374985325E-01 -7.100167355070E-02 -4.581753392840E-01
    188 F   6 C    -4.124128378165E-01  4.747608279168E-01  4.576250146750E-02
    189 F   6 C     4.576250146750E-02 -4.124128378165E-01  4.747608279168E-01
    190 F   6 C    -4.289983264493E-01  2.523917208320E-02 -3.871736657333E-01
    191 F   6 C    -3.871736657333E-01 -4.289983264493E-01  2.523917208320E-02
    192 F   6 C    -7.100167355070E-02 -4.581753392840E-01  4.542374985325E-01
    193 T   7 N     3.102674524991E-01 -4.956200868007E-01  4.357291887932E-01
    194 F   7 N    -4.313492755939E-01 -1.254617362941E-01  6.427081120680E-02
    195 F   7 N     1.897325475009E-01 -3.745382637059E-01  1.941124607002E-01
    196 F   7 N    -6.865072440610E-02 -4.379913199300E-03  3.058875392998E-01
    197 F   7 N     4.357291887932E-01  3.102674524991E-01 -4.956200868007E-01
    198 F   7 N    -4.956200868007E-01  4.357291887932E-01  3.102674524991E-01
    199 F   7 N     3.058875392998E-01 -6.865072440610E-02 -4.379913199300E-03
    200 F   7 N    -1.254617362941E-01  6.427081120680E-02 -4.313492755939E-01
    201 F   7 N     6.427081120680E-02 -4.313492755939E-01 -1.254617362941E-01
    202 F   7 N    -3.745382637059E-01  1.941124607002E-01  1.897325475009E-01
    203 F   7 N     1.941124607002E-01  1.897325475009E-01 -3.745382637059E-01
    204 F   7 N    -4.379913199300E-03  3.058875392998E-01 -6.865072440610E-02
    205 F   7 N     4.379913199300E-03 -1.897325475009E-01 -6.427081120680E-02
    206 F   7 N     3.745382637059E-01  6.865072440610E-02 -4.357291887932E-01
    207 F   7 N     1.254617362941E-01 -3.102674524991E-01 -3.058875392998E-01
    208 F   7 N     4.956200868007E-01  4.313492755939E-01 -1.941124607002E-01
    209 F   7 N    -1.897325475009E-01 -6.427081120680E-02  4.379913199300E-03
    210 F   7 N    -6.427081120680E-02  4.379913199300E-03 -1.897325475009E-01
    211 F   7 N     4.313492755939E-01 -1.941124607002E-01  4.956200868007E-01
    212 F   7 N    -4.357291887932E-01  3.745382637059E-01  6.865072440610E-02
    213 F   7 N     6.865072440610E-02 -4.357291887932E-01  3.745382637059E-01
    214 F   7 N    -3.058875392998E-01  1.254617362941E-01 -3.102674524991E-01
    215 F   7 N    -3.102674524991E-01 -3.058875392998E-01  1.254617362941E-01
    216 F   7 N    -1.941124607002E-01  4.956200868007E-01  4.313492755939E-01
    217 T   7 N     4.260818135470E-01  4.522316517186E-01  3.783876560748E-01
    218 F   7 N    -4.261560043562E-01  4.769415747220E-02  1.216123439252E-01
    219 F   7 N     7.391818645300E-02  4.523058425278E-01  2.614983817160E-02
    220 F   7 N    -7.384399564380E-02  4.776834828140E-02  4.738501618284E-01
    221 F   7 N     3.783876560748E-01  4.260818135470E-01  4.522316517186E-01
    222 F   7 N     4.522316517186E-01  3.783876560748E-01  4.260818135470E-01
    223 F   7 N     4.738501618284E-01 -7.384399564380E-02  4.776834828140E-02
    224 F   7 N     4.769415747220E-02  1.216123439252E-01 -4.261560043562E-01
    225 F   7 N     1.216123439252E-01 -4.261560043562E-01  4.769415747220E-02
    226 F   7 N     4.523058425278E-01  2.614983817160E-02  7.391818645300E-02
    227 F   7 N     2.614983817160E-02  7.391818645300E-02  4.523058425278E-01
    228 F   7 N     4.776834828140E-02  4.738501618284E-01 -7.384399564380E-02
    229 F   7 N    -4.776834828140E-02 -7.391818645300E-02 -1.216123439252E-01
    230 F   7 N    -4.523058425278E-01  7.384399564380E-02 -3.783876560748E-01
    231 F   7 N    -4.769415747220E-02 -4.260818135470E-01 -4.738501618284E-01
    232 F   7 N    -4.522316517186E-01  4.261560043562E-01 -2.614983817160E-02
    233 F   7 N    -7.391818645300E-02 -1.216123439252E-01 -4.776834828140E-02
    234 F   7 N    -1.216123439252E-01 -4.776834828140E-02 -7.391818645300E-02
    235 F   7 N     4.261560043562E-01 -2.614983817160E-02 -4.522316517186E-01
    236 F   7 N    -3.783876560748E-01 -4.523058425278E-01  7.384399564380E-02
    237 F   7 N     7.384399564380E-02 -3.783876560748E-01 -4.523058425278E-01
    238 F   7 N    -4.738501618284E-01 -4.769415747220E-02 -4.260818135470E-01
    239 F   7 N    -4.260818135470E-01 -4.738501618284E-01 -4.769415747220E-02
    240 F   7 N    -2.614983817160E-02 -4.522316517186E-01  4.261560043562E-01
    241 T  29 CU   -6.944978403084E-02 -1.846063454955E-01 -4.709579013350E-03
    242 F  29 CU    3.201032335178E-01 -6.474020501749E-02 -4.952904209866E-01
    243 F  29 CU   -4.305502159692E-01 -4.352597949825E-01 -1.151565614647E-01
    244 F  29 CU    1.798967664822E-01 -3.153936545045E-01 -3.848434385353E-01
    245 F  29 CU   -4.709579013350E-03 -6.944978403084E-02 -1.846063454955E-01
    246 F  29 CU   -1.846063454955E-01 -4.709579013350E-03 -6.944978403084E-02
    247 F  29 CU   -3.848434385353E-01  1.798967664822E-01 -3.153936545045E-01
    248 F  29 CU   -6.474020501749E-02 -4.952904209866E-01  3.201032335178E-01
    249 F  29 CU   -4.952904209867E-01  3.201032335178E-01 -6.474020501749E-02
    250 F  29 CU   -4.352597949825E-01 -1.151565614647E-01 -4.305502159692E-01
    251 F  29 CU   -1.151565614647E-01 -4.305502159692E-01 -4.352597949825E-01
    252 F  29 CU   -3.153936545045E-01 -3.848434385353E-01  1.798967664822E-01
    253 F  29 CU    3.153936545045E-01  4.305502159692E-01  4.952904209867E-01
    254 F  29 CU    4.352597949825E-01 -1.798967664822E-01  4.709579013350E-03
    255 F  29 CU    6.474020501749E-02  6.944978403084E-02  3.848434385353E-01
    256 F  29 CU    1.846063454955E-01 -3.201032335178E-01  1.151565614647E-01
    257 F  29 CU    4.305502159692E-01  4.952904209867E-01  3.153936545045E-01
    258 F  29 CU    4.952904209866E-01  3.153936545045E-01  4.305502159692E-01
    259 F  29 CU   -3.201032335178E-01  1.151565614647E-01  1.846063454955E-01
    260 F  29 CU    4.709579013350E-03  4.352597949825E-01 -1.798967664822E-01
    261 F  29 CU   -1.798967664822E-01  4.709579013350E-03  4.352597949825E-01
    262 F  29 CU    3.848434385353E-01  6.474020501749E-02  6.944978403084E-02
    263 F  29 CU    6.944978403084E-02  3.848434385353E-01  6.474020501749E-02
    264 F  29 CU    1.151565614647E-01  1.846063454955E-01 -3.201032335178E-01
    265 T  17 CL   -8.130751847400E-02 -2.599193316118E-01  3.477013838763E-02
    266 F  17 CL    2.053105300006E-01 -1.160776568616E-01  4.652298616124E-01
    267 F  17 CL   -4.186924815260E-01 -3.839223431384E-01 -1.786118131378E-01
    268 F  17 CL    2.946894699994E-01 -2.400806683882E-01 -3.213881868622E-01
    269 F  17 CL    3.477013838763E-02 -8.130751847400E-02 -2.599193316118E-01
    270 F  17 CL   -2.599193316118E-01  3.477013838763E-02 -8.130751847400E-02
    271 F  17 CL   -3.213881868622E-01  2.946894699994E-01 -2.400806683882E-01
    272 F  17 CL   -1.160776568616E-01  4.652298616124E-01  2.053105300006E-01
    273 F  17 CL    4.652298616124E-01  2.053105300006E-01 -1.160776568616E-01
    274 F  17 CL   -3.839223431384E-01 -1.786118131378E-01 -4.186924815260E-01
    275 F  17 CL   -1.786118131378E-01 -4.186924815260E-01 -3.839223431384E-01
    276 F  17 CL   -2.400806683882E-01 -3.213881868622E-01  2.946894699994E-01
    277 F  17 CL    2.400806683882E-01  4.186924815260E-01 -4.652298616124E-01
    278 F  17 CL    3.839223431384E-01 -2.946894699994E-01 -3.477013838763E-02
    279 F  17 CL    1.160776568616E-01  8.130751847400E-02  3.213881868622E-01
    280 F  17 CL    2.599193316118E-01 -2.053105300006E-01  1.786118131378E-01
    281 F  17 CL    4.186924815260E-01 -4.652298616124E-01  2.400806683882E-01
    282 F  17 CL   -4.652298616124E-01  2.400806683882E-01  4.186924815260E-01
    283 F  17 CL   -2.053105300006E-01  1.786118131378E-01  2.599193316118E-01
    284 F  17 CL   -3.477013838763E-02  3.839223431384E-01 -2.946894699994E-01
    285 F  17 CL   -2.946894699994E-01 -3.477013838763E-02  3.839223431384E-01
    286 F  17 CL    3.213881868622E-01  1.160776568616E-01  8.130751847400E-02
    287 F  17 CL    8.130751847400E-02  3.213881868622E-01  1.160776568616E-01
    288 F  17 CL    1.786118131378E-01  2.599193316118E-01 -2.053105300006E-01
    289 T   6 C     2.500000000000E-01 -3.750000000000E-01  3.750000000000E-01
    290 F   6 C    -2.500000000000E-01 -1.250000000000E-01  1.250000000000E-01
    291 F   6 C     3.750000000000E-01  2.500000000000E-01 -3.750000000000E-01
    292 F   6 C    -3.750000000000E-01  3.750000000000E-01  2.500000000000E-01
    293 F   6 C     1.250000000000E-01 -2.500000000000E-01 -1.250000000000E-01
    294 F   6 C    -1.250000000000E-01  1.250000000000E-01 -2.500000000000E-01

 TRANSFORMATION MATRIX PRIMITIVE-CRYSTALLOGRAPHIC CELL
  0.0000  1.0000  1.0000  1.0000  0.0000  1.0000  1.0000  1.0000  0.0000

 *******************************************************************************
 CRYSTALLOGRAPHIC CELL (VOLUME=      17135.98331548)
         A              B              C           ALPHA      BETA       GAMMA 
    25.78119301    25.78119301    25.78119301    90.000000  90.000000  90.000000

 COORDINATES IN THE CRYSTALLOGRAPHIC CELL
     ATOM                 X/A                 Y/B                 Z/C    
 *******************************************************************************
      1 T   6 C     3.463115171294E-01  8.051202139064E-02  1.970946029597E-01
      2 F   6 C     1.536884828706E-01 -8.051202139064E-02 -3.029053970403E-01
      3 F   6 C     3.463115171294E-01 -8.051202139064E-02  3.029053970403E-01
      4 F   6 C     1.536884828706E-01  8.051202139064E-02 -1.970946029597E-01
      5 F   6 C     1.970946029597E-01  3.463115171294E-01  8.051202139064E-02
      6 F   6 C     8.051202139064E-02  1.970946029597E-01  3.463115171294E-01
      7 F   6 C    -1.970946029597E-01  1.536884828706E-01  8.051202139064E-02
      8 F   6 C    -8.051202139064E-02 -3.029053970403E-01  1.536884828706E-01
      9 F   6 C    -3.029053970403E-01  1.536884828706E-01 -8.051202139064E-02
     10 F   6 C    -8.051202139064E-02  3.029053970403E-01  3.463115171294E-01
     11 F   6 C     3.029053970403E-01  3.463115171294E-01 -8.051202139064E-02
     12 F   6 C     8.051202139064E-02 -1.970946029597E-01  1.536884828706E-01
     13 F   6 C    -1.694879786094E-01  9.631151712940E-02 -5.290539704030E-02
     14 F   6 C     1.694879786094E-01  4.036884828706E-01 -5.290539704030E-02
     15 F   6 C    -3.305120213906E-01  9.631151712940E-02  5.290539704030E-02
     16 F   6 C    -1.694879786094E-01 -9.631151712940E-02 -4.470946029597E-01
     17 F   6 C     9.631151712940E-02 -5.290539704030E-02 -1.694879786094E-01
     18 F   6 C    -5.290539704030E-02 -1.694879786094E-01  9.631151712940E-02
     19 F   6 C    -9.631151712940E-02 -4.470946029597E-01 -1.694879786094E-01
     20 F   6 C    -5.290539704030E-02  1.694879786094E-01  4.036884828706E-01
     21 F   6 C     4.036884828706E-01 -5.290539704030E-02  1.694879786094E-01
     22 F   6 C     5.290539704030E-02 -3.305120213906E-01  9.631151712940E-02
     23 F   6 C     9.631151712940E-02  5.290539704030E-02 -3.305120213906E-01
     24 F   6 C    -4.470946029597E-01 -1.694879786094E-01 -9.631151712940E-02
     25 T   1 H     3.767380003556E-01  7.600284625319E-02  1.680313219111E-01
     26 F   1 H     1.232619996444E-01 -7.600284625319E-02 -3.319686780889E-01
     27 F   1 H    -1.232619996444E-01  4.239971537468E-01 -1.680313219111E-01
     28 F   1 H     1.232619996444E-01  7.600284625319E-02 -1.680313219111E-01
     29 F   1 H     1.680313219111E-01  3.767380003556E-01  7.600284625319E-02
     30 F   1 H     7.600284625319E-02  1.680313219111E-01  3.767380003556E-01
     31 F   1 H    -1.680313219111E-01  1.232619996444E-01  7.600284625319E-02
     32 F   1 H    -7.600284625319E-02 -3.319686780889E-01  1.232619996444E-01
     33 F   1 H    -3.319686780889E-01  1.232619996444E-01 -7.600284625319E-02
     34 F   1 H     4.239971537468E-01 -1.680313219111E-01 -1.232619996444E-01
     35 F   1 H    -1.680313219111E-01 -1.232619996444E-01  4.239971537468E-01
     36 F   1 H     7.600284625319E-02 -1.680313219111E-01  1.232619996444E-01
     37 F   1 H    -1.739971537468E-01  1.267380003556E-01 -8.196867808890E-02
     38 F   1 H     1.739971537468E-01  3.732619996444E-01 -8.196867808890E-02
     39 F   1 H    -3.260028462532E-01  1.267380003556E-01  8.196867808890E-02
     40 F   1 H    -1.739971537468E-01 -1.267380003556E-01 -4.180313219111E-01
     41 F   1 H     1.267380003556E-01 -8.196867808890E-02 -1.739971537468E-01
     42 F   1 H    -8.196867808890E-02 -1.739971537468E-01  1.267380003556E-01
     43 F   1 H    -1.267380003556E-01 -4.180313219111E-01 -1.739971537468E-01
     44 F   1 H    -8.196867808890E-02  1.739971537468E-01  3.732619996444E-01
     45 F   1 H     3.732619996444E-01 -8.196867808890E-02  1.739971537468E-01
     46 F   1 H     8.196867808890E-02 -3.260028462532E-01  1.267380003556E-01
     47 F   1 H     1.267380003556E-01  8.196867808890E-02 -3.260028462532E-01
     48 F   1 H    -4.180313219111E-01 -1.739971537468E-01 -1.267380003556E-01
     49 T   6 C     3.398178724755E-01  4.626614339943E-02  2.387536505293E-01
     50 F   6 C     1.601821275245E-01 -4.626614339943E-02 -2.612463494707E-01
     51 F   6 C     3.398178724755E-01 -4.626614339943E-02  2.612463494707E-01
     52 F   6 C     1.601821275245E-01  4.626614339943E-02 -2.387536505293E-01
     53 F   6 C     2.387536505293E-01  3.398178724755E-01  4.626614339943E-02
     54 F   6 C     4.626614339943E-02  2.387536505293E-01  3.398178724755E-01
     55 F   6 C    -2.387536505293E-01  1.601821275245E-01  4.626614339943E-02
     56 F   6 C    -4.626614339943E-02 -2.612463494707E-01  1.601821275245E-01
     57 F   6 C    -2.612463494707E-01  1.601821275245E-01 -4.626614339943E-02
     58 F   6 C    -4.626614339943E-02  2.612463494707E-01  3.398178724755E-01
     59 F   6 C     2.612463494707E-01  3.398178724755E-01 -4.626614339943E-02
     60 F   6 C     4.626614339943E-02 -2.387536505293E-01  1.601821275245E-01
     61 F   6 C    -2.037338566006E-01  8.981787247550E-02 -1.124634947070E-02
     62 F   6 C     2.037338566006E-01  4.101821275245E-01 -1.124634947070E-02
     63 F   6 C    -2.962661433994E-01  8.981787247550E-02  1.124634947070E-02
     64 F   6 C     2.962661433994E-01  4.101821275245E-01  1.124634947070E-02
     65 F   6 C     8.981787247550E-02 -1.124634947070E-02 -2.037338566006E-01
     66 F   6 C    -1.124634947070E-02 -2.037338566006E-01  8.981787247550E-02
     67 F   6 C     4.101821275245E-01  1.124634947070E-02  2.962661433994E-01
     68 F   6 C    -1.124634947070E-02  2.037338566006E-01  4.101821275245E-01
     69 F   6 C     4.101821275245E-01 -1.124634947070E-02  2.037338566006E-01
     70 F   6 C     1.124634947070E-02 -2.962661433994E-01  8.981787247550E-02
     71 F   6 C     8.981787247550E-02  1.124634947070E-02 -2.962661433994E-01
     72 F   6 C     1.124634947070E-02  2.962661433994E-01  4.101821275245E-01
     73 T   6 C     2.975160043509E-01  5.622238851750E-02  2.716637360735E-01
     74 F   6 C     2.024839956491E-01 -5.622238851750E-02 -2.283362639265E-01
     75 F   6 C     2.975160043509E-01 -5.622238851750E-02  2.283362639265E-01
     76 F   6 C     2.024839956491E-01  5.622238851750E-02 -2.716637360735E-01
     77 F   6 C     2.716637360735E-01  2.975160043509E-01  5.622238851750E-02
     78 F   6 C     5.622238851750E-02  2.716637360735E-01  2.975160043509E-01
     79 F   6 C    -2.716637360735E-01  2.024839956491E-01  5.622238851750E-02
     80 F   6 C    -5.622238851750E-02 -2.283362639265E-01  2.024839956491E-01
     81 F   6 C    -2.283362639265E-01  2.024839956491E-01 -5.622238851750E-02
     82 F   6 C    -5.622238851750E-02  2.283362639265E-01  2.975160043509E-01
     83 F   6 C     2.283362639265E-01  2.975160043509E-01 -5.622238851750E-02
     84 F   6 C     5.622238851750E-02 -2.716637360735E-01  2.024839956491E-01
     85 F   6 C    -1.937776114825E-01  4.751600435090E-02  2.166373607350E-02
     86 F   6 C     1.937776114825E-01  4.524839956491E-01  2.166373607350E-02
     87 F   6 C    -3.062223885175E-01  4.751600435090E-02 -2.166373607350E-02
     88 F   6 C    -1.937776114825E-01 -4.751600435090E-02  4.783362639265E-01
     89 F   6 C     4.751600435090E-02  2.166373607350E-02 -1.937776114825E-01
     90 F   6 C     2.166373607350E-02 -1.937776114825E-01  4.751600435090E-02
     91 F   6 C    -4.751600435090E-02  4.783362639265E-01 -1.937776114825E-01
     92 F   6 C     2.166373607350E-02  1.937776114825E-01  4.524839956491E-01
     93 F   6 C     4.524839956491E-01  2.166373607350E-02  1.937776114825E-01
     94 F   6 C    -2.166373607350E-02 -3.062223885175E-01  4.751600435090E-02
     95 F   6 C     4.751600435090E-02 -2.166373607350E-02 -3.062223885175E-01
     96 F   6 C     4.783362639265E-01 -1.937776114825E-01 -4.751600435090E-02
     97 T   1 H     2.865307944353E-01  3.117167320213E-02  3.041898378478E-01
     98 F   1 H     2.134692055647E-01 -3.117167320213E-02 -1.958101621522E-01
     99 F   1 H     2.865307944353E-01 -3.117167320213E-02  1.958101621522E-01
    100 F   1 H     2.134692055647E-01  3.117167320213E-02 -3.041898378478E-01
    101 F   1 H     3.041898378478E-01  2.865307944353E-01  3.117167320213E-02
    102 F   1 H     3.117167320213E-02  3.041898378478E-01  2.865307944353E-01
    103 F   1 H    -3.041898378478E-01  2.134692055647E-01  3.117167320213E-02
    104 F   1 H    -3.117167320213E-02 -1.958101621522E-01  2.134692055647E-01
    105 F   1 H    -1.958101621522E-01  2.134692055647E-01 -3.117167320213E-02
    106 F   1 H    -3.117167320213E-02  1.958101621522E-01  2.865307944353E-01
    107 F   1 H     1.958101621522E-01  2.865307944353E-01 -3.117167320213E-02
    108 F   1 H     3.117167320213E-02 -3.041898378478E-01  2.134692055647E-01
    109 F   1 H    -2.188283267979E-01  3.653079443530E-02  5.418983784780E-02
    110 F   1 H     2.188283267979E-01  4.634692055647E-01  5.418983784780E-02
    111 F   1 H    -2.811716732021E-01  3.653079443530E-02 -5.418983784780E-02
    112 F   1 H    -2.188283267979E-01 -3.653079443530E-02  4.458101621522E-01
    113 F   1 H     3.653079443530E-02  5.418983784780E-02 -2.188283267979E-01
    114 F   1 H     5.418983784780E-02 -2.188283267979E-01  3.653079443530E-02
    115 F   1 H    -3.653079443530E-02  4.458101621522E-01 -2.188283267979E-01
    116 F   1 H     5.418983784780E-02  2.188283267979E-01  4.634692055647E-01
    117 F   1 H     4.634692055647E-01  5.418983784780E-02  2.188283267979E-01
    118 F   1 H    -5.418983784780E-02 -2.811716732021E-01  3.653079443530E-02
    119 F   1 H     3.653079443530E-02 -5.418983784780E-02 -2.811716732021E-01
    120 F   1 H     4.458101621522E-01 -2.188283267979E-01 -3.653079443530E-02
    121 T   7 N     2.670236941006E-01  9.693043889816E-02  2.647322400521E-01
    122 F   7 N     2.329763058994E-01 -9.693043889816E-02 -2.352677599479E-01
    123 F   7 N     2.670236941006E-01 -9.693043889816E-02  2.352677599479E-01
    124 F   7 N     2.329763058994E-01  9.693043889816E-02 -2.647322400521E-01
    125 F   7 N     2.647322400521E-01  2.670236941006E-01  9.693043889816E-02
    126 F   7 N     9.693043889816E-02  2.647322400521E-01  2.670236941006E-01
    127 F   7 N    -2.647322400521E-01  2.329763058994E-01  9.693043889816E-02
    128 F   7 N    -9.693043889816E-02 -2.352677599479E-01  2.329763058994E-01
    129 F   7 N    -2.352677599479E-01  2.329763058994E-01 -9.693043889816E-02
    130 F   7 N    -9.693043889816E-02  2.352677599479E-01  2.670236941006E-01
    131 F   7 N     2.352677599479E-01  2.670236941006E-01 -9.693043889816E-02
    132 F   7 N     9.693043889816E-02 -2.647322400521E-01  2.329763058994E-01
    133 F   7 N    -1.530695611018E-01  1.702369410060E-02  1.473224005210E-02
    134 F   7 N     1.530695611018E-01  4.829763058994E-01  1.473224005210E-02
    135 F   7 N    -3.469304388982E-01  1.702369410060E-02 -1.473224005210E-02
    136 F   7 N    -1.530695611018E-01 -1.702369410060E-02  4.852677599479E-01
    137 F   7 N     1.702369410060E-02  1.473224005210E-02 -1.530695611018E-01
    138 F   7 N     1.473224005210E-02 -1.530695611018E-01  1.702369410060E-02
    139 F   7 N    -1.702369410060E-02  4.852677599479E-01 -1.530695611018E-01
    140 F   7 N     1.473224005210E-02  1.530695611018E-01  4.829763058994E-01
    141 F   7 N     4.829763058994E-01  1.473224005210E-02  1.530695611018E-01
    142 F   7 N    -1.473224005210E-02 -3.469304388982E-01  1.702369410060E-02
    143 F   7 N     1.702369410060E-02 -1.473224005210E-02 -3.469304388982E-01
    144 F   7 N     4.852677599479E-01 -1.530695611018E-01 -1.702369410060E-02
    145 T   6 C     2.769934603083E-01  1.270573082409E-01  2.239507489762E-01
    146 F   6 C     2.230065396917E-01 -1.270573082409E-01 -2.760492510238E-01
    147 F   6 C     2.769934603083E-01 -1.270573082409E-01  2.760492510238E-01
    148 F   6 C     2.230065396917E-01  1.270573082409E-01 -2.239507489762E-01
    149 F   6 C     2.239507489762E-01  2.769934603083E-01  1.270573082409E-01
    150 F   6 C     1.270573082409E-01  2.239507489762E-01  2.769934603083E-01
    151 F   6 C    -2.239507489762E-01  2.230065396917E-01  1.270573082409E-01
    152 F   6 C    -1.270573082409E-01 -2.760492510238E-01  2.230065396917E-01
    153 F   6 C    -2.760492510238E-01  2.230065396917E-01 -1.270573082409E-01
    154 F   6 C    -1.270573082409E-01  2.760492510238E-01  2.769934603083E-01
    155 F   6 C     2.760492510238E-01  2.769934603083E-01 -1.270573082409E-01
    156 F   6 C     1.270573082409E-01 -2.239507489762E-01  2.230065396917E-01
    157 F   6 C    -1.229426917591E-01  2.699346030830E-02 -2.604925102380E-02
    158 F   6 C     1.229426917591E-01  4.730065396917E-01 -2.604925102380E-02
    159 F   6 C    -3.770573082409E-01  2.699346030830E-02  2.604925102380E-02
    160 F   6 C    -1.229426917591E-01 -2.699346030830E-02 -4.739507489762E-01
    161 F   6 C     2.699346030830E-02 -2.604925102380E-02 -1.229426917591E-01
    162 F   6 C    -2.604925102380E-02 -1.229426917591E-01  2.699346030830E-02
    163 F   6 C    -2.699346030830E-02 -4.739507489762E-01 -1.229426917591E-01
    164 F   6 C    -2.604925102380E-02  1.229426917591E-01  4.730065396917E-01
    165 F   6 C     4.730065396917E-01 -2.604925102380E-02  1.229426917591E-01
    166 F   6 C     2.604925102380E-02 -3.770573082409E-01  2.699346030830E-02
    167 F   6 C     2.699346030830E-02  2.604925102380E-02 -3.770573082409E-01
    168 F   6 C    -4.739507489762E-01 -1.229426917591E-01 -2.699346030830E-02
    169 T   6 C     2.417072556836E-01  1.707055821329E-01  2.164680836004E-01
    170 F   6 C     2.582927443164E-01 -1.707055821329E-01 -2.835319163996E-01
    171 F   6 C     2.417072556836E-01 -1.707055821329E-01  2.835319163996E-01
    172 F   6 C     2.582927443164E-01  1.707055821329E-01 -2.164680836004E-01
    173 F   6 C     2.164680836004E-01  2.417072556836E-01  1.707055821329E-01
    174 F   6 C     1.707055821329E-01  2.164680836004E-01  2.417072556836E-01
    175 F   6 C    -2.164680836004E-01  2.582927443164E-01  1.707055821329E-01
    176 F   6 C    -1.707055821329E-01 -2.835319163996E-01  2.582927443164E-01
    177 F   6 C    -2.835319163996E-01  2.582927443164E-01 -1.707055821329E-01
    178 F   6 C    -1.707055821329E-01  2.835319163996E-01  2.417072556836E-01
    179 F   6 C     2.835319163996E-01  2.417072556836E-01 -1.707055821329E-01
    180 F   6 C     1.707055821329E-01 -2.164680836004E-01  2.582927443164E-01
    181 F   6 C    -7.929441786710E-02 -8.292744316400E-03 -3.353191639960E-02
    182 F   6 C     7.929441786710E-02 -4.917072556836E-01 -3.353191639960E-02
    183 F   6 C    -4.207055821329E-01 -8.292744316400E-03  3.353191639960E-02
    184 F   6 C    -7.929441786710E-02  8.292744316400E-03 -4.664680836004E-01
    185 F   6 C    -8.292744316400E-03 -3.353191639960E-02 -7.929441786710E-02
    186 F   6 C    -3.353191639960E-02 -7.929441786710E-02 -8.292744316400E-03
    187 F   6 C     8.292744316400E-03 -4.664680836004E-01 -7.929441786710E-02
    188 F   6 C    -3.353191639960E-02  7.929441786710E-02 -4.917072556836E-01
    189 F   6 C    -4.917072556836E-01 -3.353191639960E-02  7.929441786710E-02
    190 F   6 C     3.353191639960E-02 -4.207055821329E-01 -8.292744316400E-03
    191 F   6 C    -8.292744316400E-03  3.353191639960E-02 -4.207055821329E-01
    192 F   6 C    -4.664680836004E-01 -7.929441786710E-02  8.292744316400E-03
    193 T   7 N     3.149208247467E-01  1.208083640465E-01  1.894590884526E-01
    194 F   7 N     1.850791752533E-01 -1.208083640465E-01 -3.105409115474E-01
    195 F   7 N     3.149208247467E-01 -1.208083640465E-01  3.105409115474E-01
    196 F   7 N     1.850791752533E-01  1.208083640465E-01 -1.894590884526E-01
    197 F   7 N     1.894590884526E-01  3.149208247467E-01  1.208083640465E-01
    198 F   7 N     1.208083640465E-01  1.894590884526E-01  3.149208247467E-01
    199 F   7 N    -1.894590884526E-01  1.850791752533E-01  1.208083640465E-01
    200 F   7 N    -1.208083640465E-01 -3.105409115474E-01  1.850791752533E-01
    201 F   7 N    -3.105409115474E-01  1.850791752533E-01 -1.208083640465E-01
    202 F   7 N    -1.208083640465E-01  3.105409115474E-01  3.149208247467E-01
    203 F   7 N     3.105409115474E-01  3.149208247467E-01 -1.208083640465E-01
    204 F   7 N     1.208083640465E-01 -1.894590884526E-01  1.850791752533E-01
    205 F   7 N    -1.291916359535E-01  6.492082474670E-02 -6.054091154740E-02
    206 F   7 N     1.291916359535E-01  4.350791752533E-01 -6.054091154740E-02
    207 F   7 N    -3.708083640465E-01  6.492082474670E-02  6.054091154740E-02
    208 F   7 N    -1.291916359535E-01 -6.492082474670E-02 -4.394590884526E-01
    209 F   7 N     6.492082474670E-02 -6.054091154740E-02 -1.291916359535E-01
    210 F   7 N    -6.054091154740E-02 -1.291916359535E-01  6.492082474670E-02
    211 F   7 N    -6.492082474670E-02 -4.394590884526E-01 -1.291916359535E-01
    212 F   7 N    -6.054091154740E-02  1.291916359535E-01  4.350791752533E-01
    213 F   7 N     4.350791752533E-01 -6.054091154740E-02  1.291916359535E-01
    214 F   7 N     6.054091154740E-02 -3.708083640465E-01  6.492082474670E-02
    215 F   7 N     6.492082474670E-02  6.054091154740E-02 -3.708083640465E-01
    216 F   7 N    -4.394590884526E-01 -1.291916359535E-01 -6.492082474670E-02
    217 T   7 N     2.022687471232E-01  1.761189089516E-01  2.499629045954E-01
    218 F   7 N     2.977312528768E-01 -1.761189089516E-01 -2.500370954046E-01
    219 F   7 N     2.022687471232E-01 -1.761189089516E-01  2.500370954046E-01
    220 F   7 N     2.977312528768E-01  1.761189089516E-01 -2.499629045954E-01
    221 F   7 N     2.499629045954E-01  2.022687471232E-01  1.761189089516E-01
    222 F   7 N     1.761189089516E-01  2.499629045954E-01  2.022687471232E-01
    223 F   7 N    -2.499629045954E-01  2.977312528768E-01  1.761189089516E-01
    224 F   7 N    -1.761189089516E-01 -2.500370954046E-01  2.977312528768E-01
    225 F   7 N    -2.500370954046E-01  2.977312528768E-01 -1.761189089516E-01
    226 F   7 N    -1.761189089516E-01  2.500370954046E-01  2.022687471232E-01
    227 F   7 N     2.500370954046E-01  2.022687471232E-01 -1.761189089516E-01
    228 F   7 N     1.761189089516E-01 -2.499629045954E-01  2.977312528768E-01
    229 F   7 N    -7.388109104840E-02 -4.773125287680E-02 -3.709540459995E-05
    230 F   7 N     7.388109104840E-02 -4.522687471232E-01 -3.709540459992E-05
    231 F   7 N    -4.261189089516E-01 -4.773125287680E-02  3.709540460003E-05
    232 F   7 N    -7.388109104840E-02  4.773125287680E-02 -4.999629045954E-01
    233 F   7 N    -4.773125287680E-02 -3.709540460000E-05 -7.388109104840E-02
    234 F   7 N    -3.709540459979E-05 -7.388109104840E-02 -4.773125287680E-02
    235 F   7 N     4.773125287680E-02 -4.999629045954E-01 -7.388109104840E-02
    236 F   7 N    -3.709540459988E-05  7.388109104840E-02 -4.522687471232E-01
    237 F   7 N    -4.522687471232E-01 -3.709540460004E-05  7.388109104840E-02
    238 F   7 N     3.709540460012E-05 -4.261189089516E-01 -4.773125287680E-02
    239 F   7 N    -4.773125287680E-02  3.709540460008E-05 -4.261189089516E-01
    240 F   7 N    -4.999629045954E-01 -7.388109104840E-02  4.773125287680E-02
    241 T  29 CU   -5.993307023901E-02  5.522349122566E-02 -1.246732752565E-01
    242 F  29 CU    5.993307023901E-02  4.447765087743E-01 -1.246732752565E-01
    243 F  29 CU   -5.993307023901E-02 -5.522349122566E-02 -3.753267247435E-01
    244 F  29 CU   -4.400669297610E-01  5.522349122566E-02  1.246732752565E-01
    245 F  29 CU   -1.246732752565E-01 -5.993307023901E-02  5.522349122566E-02
    246 F  29 CU    5.522349122566E-02 -1.246732752565E-01 -5.993307023901E-02
    247 F  29 CU    1.246732752565E-01 -4.400669297610E-01  5.522349122566E-02
    248 F  29 CU    4.447765087743E-01 -1.246732752565E-01  5.993307023901E-02
    249 F  29 CU   -1.246732752565E-01  5.993307023901E-02  4.447765087743E-01
    250 F  29 CU   -5.522349122566E-02 -3.753267247435E-01 -5.993307023901E-02
    251 F  29 CU   -3.753267247435E-01 -5.993307023901E-02 -5.522349122566E-02
    252 F  29 CU    5.522349122566E-02  1.246732752565E-01 -4.400669297610E-01
    253 F  29 CU    3.052234912257E-01  1.900669297610E-01  1.253267247435E-01
    254 F  29 CU   -3.052234912257E-01  3.099330702390E-01  1.253267247435E-01
    255 F  29 CU    1.947765087743E-01  1.900669297610E-01 -1.253267247435E-01
    256 F  29 CU   -1.947765087743E-01  3.099330702390E-01 -1.253267247435E-01
    257 F  29 CU    1.900669297610E-01  1.253267247435E-01  3.052234912257E-01
    258 F  29 CU    1.253267247435E-01  3.052234912257E-01  1.900669297610E-01
    259 F  29 CU    3.099330702390E-01 -1.253267247435E-01 -1.947765087743E-01
    260 F  29 CU    1.253267247435E-01 -3.052234912257E-01  3.099330702390E-01
    261 F  29 CU    3.099330702390E-01  1.253267247435E-01 -3.052234912257E-01
    262 F  29 CU   -1.253267247435E-01  1.947765087743E-01  1.900669297610E-01
    263 F  29 CU    1.900669297610E-01 -1.253267247435E-01  1.947765087743E-01
    264 F  29 CU   -1.253267247435E-01 -1.947765087743E-01  3.099330702390E-01
    265 T  17 CL   -7.192083737507E-02  1.066909757627E-01 -1.879984942367E-01
    266 F  17 CL    7.192083737507E-02  3.933090242373E-01 -1.879984942367E-01
    267 F  17 CL   -7.192083737507E-02 -1.066909757627E-01 -3.120015057633E-01
    268 F  17 CL   -4.280791626249E-01  1.066909757627E-01  1.879984942367E-01
    269 F  17 CL   -1.879984942367E-01 -7.192083737507E-02  1.066909757627E-01
    270 F  17 CL    1.066909757627E-01 -1.879984942367E-01 -7.192083737507E-02
    271 F  17 CL    1.879984942367E-01 -4.280791626249E-01  1.066909757627E-01
    272 F  17 CL    3.933090242373E-01 -1.879984942367E-01  7.192083737507E-02
    273 F  17 CL   -1.879984942367E-01  7.192083737507E-02  3.933090242373E-01
    274 F  17 CL   -1.066909757627E-01 -3.120015057633E-01 -7.192083737507E-02
    275 F  17 CL   -3.120015057633E-01 -7.192083737507E-02 -1.066909757627E-01
    276 F  17 CL    1.066909757627E-01  1.879984942367E-01 -4.280791626249E-01
    277 F  17 CL    3.566909757627E-01  1.780791626249E-01  6.200150576330E-02
    278 F  17 CL   -3.566909757627E-01  3.219208373751E-01  6.200150576330E-02
    279 F  17 CL    1.433090242373E-01  1.780791626249E-01 -6.200150576330E-02
    280 F  17 CL   -1.433090242373E-01  3.219208373751E-01 -6.200150576330E-02
    281 F  17 CL    1.780791626249E-01  6.200150576330E-02  3.566909757627E-01
    282 F  17 CL    6.200150576330E-02  3.566909757627E-01  1.780791626249E-01
    283 F  17 CL    3.219208373751E-01 -6.200150576330E-02 -1.433090242373E-01
    284 F  17 CL    6.200150576330E-02 -3.566909757627E-01  3.219208373751E-01
    285 F  17 CL    3.219208373751E-01  6.200150576330E-02 -3.566909757627E-01
    286 F  17 CL   -6.200150576330E-02  1.433090242373E-01  1.780791626249E-01
    287 F  17 CL    1.780791626249E-01 -6.200150576330E-02  1.433090242373E-01
    288 F  17 CL   -6.200150576330E-02 -1.433090242373E-01  3.219208373751E-01
    289 T   6 C     3.750000000000E-01 -9.115244907924E-18  2.500000000000E-01
    290 F   6 C     1.250000000000E-01 -4.352702008034E-18 -2.500000000000E-01
    291 F   6 C     2.500000000000E-01  3.750000000000E-01 -8.367656773874E-17
    292 F   6 C     8.196817837137E-19  2.500000000000E-01  3.750000000000E-01
    293 F   6 C    -2.500000000000E-01  1.250000000000E-01 -3.533020224320E-18
    294 F   6 C     9.279181264667E-17 -2.500000000000E-01  1.250000000000E-01

 T = ATOM BELONGING TO THE ASYMMETRIC UNIT

 ****   24 SYMMOPS - TRANSLATORS IN FRACTIONAL UNITS
 **** MATRICES AND TRANSLATORS IN THE CRYSTALLOGRAPHIC REFERENCE FRAME
   V INV                    ROTATION MATRICES                   TRANSLATORS
   1   1  1.00  0.00  0.00  0.00  1.00  0.00  0.00  0.00  1.00  0.00  0.00  0.00
   2   2  0.00  1.00 -1.00  1.00  0.00 -1.00 -0.00  0.00 -1.00  0.50 -0.00  0.50
   3   3 -1.00 -0.00  0.00 -1.00 -0.00  1.00 -1.00  1.00 -0.00  0.50  0.50 -0.00
   4   4 -0.00 -1.00  1.00 -0.00 -1.00  0.00  1.00 -1.00  0.00  0.00  0.50  0.50
   5   6  0.00 -0.00  1.00  1.00 -0.00  0.00  0.00  1.00 -0.00  0.00  0.00  0.00
   6   5  0.00  1.00 -0.00  0.00 -0.00  1.00  1.00 -0.00 -0.00  0.00  0.00  0.00
   7   8  1.00 -1.00  0.00  0.00 -1.00  1.00 -0.00 -1.00  0.00  0.50 -0.00  0.50
   8   7  1.00  0.00 -1.00 -0.00  0.00 -1.00 -0.00  1.00 -1.00  0.00  0.50  0.50
   9  10 -0.00  0.00 -1.00 -0.00  1.00 -1.00  1.00  0.00 -1.00  0.50  0.50 -0.00
  10   9 -1.00 -0.00  1.00 -1.00  1.00 -0.00 -1.00 -0.00 -0.00  0.50 -0.00  0.50
  11  12 -1.00  1.00 -0.00 -1.00  0.00 -0.00 -1.00 -0.00  1.00  0.00  0.50  0.50
  12  11 -0.00 -1.00  0.00  1.00 -1.00  0.00 -0.00 -1.00  1.00  0.50  0.50 -0.00
[...]
 111 H    1 -0.000 -0.000 -0.000 -0.000
 112 H    1 -0.000 -0.000 -0.000 -0.000
 113 H    1 -0.000 -0.000 -0.000 -0.000
 114 H    1 -0.000 -0.000 -0.000 -0.000
 115 H    1 -0.000 -0.000 -0.000 -0.000
 116 H    1 -0.000 -0.000 -0.000 -0.000
 117 H    1 -0.000 -0.000 -0.000 -0.000
 118 H    1 -0.000 -0.000 -0.000 -0.000
 119 H    1 -0.000 -0.000 -0.000 -0.000
 120 H    1 -0.000 -0.000 -0.000 -0.000
 121 N    7 -0.000  0.000 -0.000  0.000 -0.000 -0.000 -0.000
 122 N    7 -0.000  0.000 -0.000  0.000 -0.000 -0.000 -0.000
 123 N    7 -0.000  0.000 -0.000  0.000 -0.000 -0.000 -0.000
 124 N    7 -0.000  0.000 -0.000  0.000 -0.000 -0.000 -0.000
 125 N    7 -0.000  0.000 -0.000  0.000 -0.000 -0.000 -0.000
 126 N    7 -0.000  0.000 -0.000  0.000 -0.000 -0.000 -0.000
 127 N    7 -0.000  0.000 -0.000  0.000 -0.000 -0.000 -0.000
 128 N    7 -0.000  0.000 -0.000  0.000 -0.000 -0.000 -0.000
 129 N    7 -0.000  0.000 -0.000  0.000 -0.000 -0.000 -0.000
 130 N    7 -0.000  0.000 -0.000  0.000 -0.000 -0.000 -0.000
 131 N    7 -0.000  0.000 -0.000  0.000 -0.000 -0.000 -0.000
 132 N    7 -0.000  0.000 -0.000  0.000 -0.000 -0.000 -0.000
 133 N    7 -0.000  0.000 -0.000  0.000 -0.000 -0.000 -0.000
 134 N    7 -0.000  0.000 -0.000  0.000 -0.000 -0.000 -0.000
 135 N    7 -0.000  0.000 -0.000  0.000 -0.000 -0.000 -0.000
 136 N    7 -0.000  0.000 -0.000  0.000 -0.000 -0.000 -0.000
 137 N    7 -0.000  0.000 -0.000  0.000 -0.000 -0.000 -0.000
 138 N    7 -0.000  0.000 -0.000  0.000 -0.000 -0.000 -0.000
 139 N    7 -0.000  0.000 -0.000  0.000 -0.000 -0.000 -0.000
 140 N    7 -0.000  0.000 -0.000  0.000 -0.000 -0.000 -0.000
 141 N    7 -0.000  0.000 -0.000  0.000 -0.000 -0.000 -0.000
 142 N    7 -0.000  0.000 -0.000  0.000 -0.000 -0.000 -0.000
 143 N    7 -0.000  0.000 -0.000  0.000 -0.000 -0.000 -0.000
 144 N    7 -0.000  0.000 -0.000  0.000 -0.000 -0.000 -0.000
 145 C    6  0.000  0.000  0.000  0.000  0.000 -0.000 -0.000
 146 C    6  0.000  0.000  0.000  0.000  0.000 -0.000 -0.000
 147 C    6  0.000  0.000  0.000  0.000  0.000 -0.000 -0.000
 148 C    6  0.000  0.000  0.000  0.000  0.000 -0.000 -0.000
 149 C    6  0.000  0.000  0.000  0.000  0.000 -0.000 -0.000
 150 C    6  0.000  0.000  0.000  0.000  0.000 -0.000 -0.000
 151 C    6  0.000  0.000  0.000  0.000  0.000 -0.000 -0.000
 152 C    6  0.000  0.000  0.000  0.000  0.000 -0.000 -0.000
 153 C    6  0.000  0.000  0.000  0.000  0.000 -0.000 -0.000
 154 C    6  0.000  0.000  0.000  0.000  0.000 -0.000 -0.000
 155 C    6  0.000  0.000  0.000  0.000  0.000 -0.000 -0.000
 156 C    6  0.000  0.000  0.000  0.000  0.000 -0.000 -0.000
 157 C    6  0.000  0.000  0.000  0.000  0.000 -0.000 -0.000
 158 C    6  0.000  0.000  0.000  0.000  0.000 -0.000 -0.000
 159 C    6  0.000  0.000  0.000  0.000  0.000 -0.000 -0.000
 160 C    6  0.000  0.000  0.000  0.000  0.000 -0.000 -0.000
 161 C    6  0.000  0.000  0.000  0.000  0.000 -0.000 -0.000
 162 C    6  0.000  0.000  0.000  0.000  0.000 -0.000 -0.000
 163 C    6  0.000  0.000  0.000  0.000  0.000 -0.000 -0.000
 164 C    6  0.000  0.000  0.000  0.000  0.000 -0.000 -0.000
 165 C    6  0.000  0.000  0.000  0.000  0.000 -0.000 -0.000
 166 C    6  0.000  0.000  0.000  0.000  0.000 -0.000 -0.000
 167 C    6  0.000  0.000  0.000  0.000  0.000 -0.000 -0.000
 168 C    6  0.000  0.000  0.000  0.000  0.000 -0.000 -0.000
 169 C    6 -0.000  0.000 -0.000 -0.000 -0.000 -0.000 -0.000
 170 C    6 -0.000  0.000 -0.000 -0.000 -0.000 -0.000 -0.000
 171 C    6 -0.000  0.000 -0.000 -0.000 -0.000 -0.000 -0.000
 172 C    6 -0.000  0.000 -0.000 -0.000 -0.000 -0.000 -0.000
 173 C    6 -0.000  0.000 -0.000 -0.000 -0.000 -0.000 -0.000
 174 C    6 -0.000  0.000 -0.000 -0.000 -0.000 -0.000 -0.000
 175 C    6 -0.000  0.000 -0.000 -0.000 -0.000 -0.000 -0.000
 176 C    6 -0.000  0.000 -0.000 -0.000 -0.000 -0.000 -0.000
 177 C    6 -0.000  0.000 -0.000 -0.000 -0.000 -0.000 -0.000
 178 C    6 -0.000  0.000 -0.000 -0.000 -0.000 -0.000 -0.000
 179 C    6 -0.000  0.000 -0.000 -0.000 -0.000 -0.000 -0.000
 180 C    6 -0.000  0.000 -0.000 -0.000 -0.000 -0.000 -0.000
 181 C    6 -0.000  0.000 -0.000 -0.000 -0.000 -0.000 -0.000
 182 C    6 -0.000  0.000 -0.000 -0.000 -0.000 -0.000 -0.000
 183 C    6 -0.000  0.000 -0.000 -0.000 -0.000 -0.000 -0.000
 184 C    6 -0.000  0.000 -0.000 -0.000 -0.000 -0.000 -0.000
 185 C    6 -0.000  0.000 -0.000 -0.000 -0.000 -0.000 -0.000
 186 C    6 -0.000  0.000 -0.000 -0.000 -0.000 -0.000 -0.000
 187 C    6 -0.000  0.000 -0.000 -0.000 -0.000 -0.000 -0.000
 188 C    6 -0.000  0.000 -0.000 -0.000 -0.000 -0.000 -0.000
 189 C    6 -0.000  0.000 -0.000 -0.000 -0.000 -0.000 -0.000
 190 C    6 -0.000  0.000 -0.000 -0.000 -0.000 -0.000 -0.000
 191 C    6 -0.000  0.000 -0.000 -0.000 -0.000 -0.000 -0.000
 192 C    6 -0.000  0.000 -0.000 -0.000 -0.000 -0.000 -0.000
 193 N    7 -0.000  0.000 -0.000  0.000 -0.000 -0.000 -0.000
 194 N    7 -0.000  0.000 -0.000  0.000 -0.000 -0.000 -0.000
 195 N    7 -0.000  0.000 -0.000  0.000 -0.000 -0.000 -0.000
 196 N    7 -0.000  0.000 -0.000  0.000 -0.000 -0.000 -0.000
 197 N    7 -0.000  0.000 -0.000  0.000 -0.000 -0.000 -0.000
 198 N    7 -0.000  0.000 -0.000  0.000 -0.000 -0.000 -0.000
 199 N    7 -0.000  0.000 -0.000  0.000 -0.000 -0.000 -0.000
 200 N    7 -0.000  0.000 -0.000  0.000 -0.000 -0.000 -0.000
 201 N    7 -0.000  0.000 -0.000  0.000 -0.000 -0.000 -0.000
 202 N    7 -0.000  0.000 -0.000  0.000 -0.000 -0.000 -0.000
 203 N    7 -0.000  0.000 -0.000  0.000 -0.000 -0.000 -0.000
 204 N    7 -0.000  0.000 -0.000  0.000 -0.000 -0.000 -0.000
 205 N    7 -0.000  0.000 -0.000  0.000 -0.000 -0.000 -0.000
 206 N    7 -0.000  0.000 -0.000  0.000 -0.000 -0.000 -0.000
 207 N    7 -0.000  0.000 -0.000  0.000 -0.000 -0.000 -0.000
 208 N    7 -0.000  0.000 -0.000  0.000 -0.000 -0.000 -0.000
 209 N    7 -0.000  0.000 -0.000  0.000 -0.000 -0.000 -0.000
 210 N    7 -0.000  0.000 -0.000  0.000 -0.000 -0.000 -0.000
 211 N    7 -0.000  0.000 -0.000  0.000 -0.000 -0.000 -0.000
 212 N    7 -0.000  0.000 -0.000  0.000 -0.000 -0.000 -0.000
 213 N    7 -0.000  0.000 -0.000  0.000 -0.000 -0.000 -0.000
 214 N    7 -0.000  0.000 -0.000  0.000 -0.000 -0.000 -0.000
 215 N    7 -0.000  0.000 -0.000  0.000 -0.000 -0.000 -0.000
 216 N    7 -0.000  0.000 -0.000  0.000 -0.000 -0.000 -0.000
 217 N    7  0.000  0.000  0.000  0.000  0.000 -0.000 -0.000
 218 N    7  0.000  0.000  0.000  0.000  0.000 -0.000 -0.000
 219 N    7  0.000  0.000  0.000  0.000  0.000 -0.000 -0.000
 220 N    7  0.000  0.000  0.000  0.000  0.000 -0.000 -0.000
 221 N    7  0.000  0.000  0.000  0.000  0.000 -0.000 -0.000
 222 N    7  0.000  0.000  0.000  0.000  0.000 -0.000 -0.000
 223 N    7  0.000  0.000  0.000  0.000  0.000 -0.000 -0.000
 224 N    7  0.000  0.000  0.000  0.000  0.000 -0.000 -0.000
 225 N    7  0.000  0.000  0.000  0.000  0.000 -0.000 -0.000
 226 N    7  0.000  0.000  0.000  0.000  0.000 -0.000 -0.000
 227 N    7  0.000  0.000  0.000  0.000  0.000 -0.000 -0.000
 228 N    7  0.000  0.000  0.000  0.000  0.000 -0.000 -0.000
 229 N    7  0.000  0.000  0.000  0.000  0.000 -0.000 -0.000
 230 N    7  0.000  0.000  0.000  0.000  0.000 -0.000 -0.000
 231 N    7  0.000  0.000  0.000  0.000  0.000 -0.000 -0.000
 232 N    7  0.000  0.000  0.000  0.000  0.000 -0.000 -0.000
 233 N    7  0.000  0.000  0.000  0.000  0.000 -0.000 -0.000
 234 N    7  0.000  0.000  0.000  0.000  0.000 -0.000 -0.000
 235 N    7  0.000  0.000  0.000  0.000  0.000 -0.000 -0.000
 236 N    7  0.000  0.000  0.000  0.000  0.000 -0.000 -0.000
 237 N    7  0.000  0.000  0.000  0.000  0.000 -0.000 -0.000
 238 N    7  0.000  0.000  0.000  0.000  0.000 -0.000 -0.000
 239 N    7  0.000  0.000  0.000  0.000  0.000 -0.000 -0.000
 240 N    7  0.000  0.000  0.000  0.000  0.000 -0.000 -0.000
 241 CU  29  0.000  0.000 -0.000  0.000 -0.000  0.000 -0.000  0.000 -0.000
                    0.000 -0.000 -0.000
 242 CU  29  0.000  0.000 -0.000  0.000 -0.000  0.000 -0.000  0.000 -0.000
                    0.000 -0.000 -0.000
 243 CU  29  0.000  0.000 -0.000  0.000 -0.000  0.000 -0.000  0.000 -0.000
                    0.000 -0.000 -0.000
 244 CU  29  0.000  0.000 -0.000  0.000 -0.000  0.000 -0.000  0.000 -0.000
                    0.000 -0.000 -0.000
 245 CU  29  0.000  0.000 -0.000  0.000 -0.000  0.000 -0.000  0.000 -0.000
                    0.000 -0.000 -0.000
 246 CU  29  0.000  0.000 -0.000  0.000 -0.000  0.000 -0.000  0.000 -0.000
                    0.000 -0.000 -0.000
 247 CU  29  0.000  0.000 -0.000  0.000 -0.000  0.000 -0.000  0.000 -0.000
                    0.000 -0.000 -0.000
 248 CU  29  0.000  0.000 -0.000  0.000 -0.000  0.000 -0.000  0.000 -0.000
                    0.000 -0.000 -0.000
 249 CU  29  0.000  0.000 -0.000  0.000 -0.000  0.000 -0.000  0.000 -0.000
                    0.000 -0.000 -0.000
 250 CU  29  0.000  0.000 -0.000  0.000 -0.000  0.000 -0.000  0.000 -0.000
                    0.000 -0.000 -0.000
 251 CU  29  0.000  0.000 -0.000  0.000 -0.000  0.000 -0.000  0.000 -0.000
                    0.000 -0.000 -0.000
 252 CU  29  0.000  0.000 -0.000  0.000 -0.000  0.000 -0.000  0.000 -0.000
                    0.000 -0.000 -0.000
 253 CU  29  0.000  0.000 -0.000  0.000 -0.000  0.000 -0.000  0.000 -0.000
                    0.000 -0.000 -0.000
 254 CU  29  0.000  0.000 -0.000  0.000 -0.000  0.000 -0.000  0.000 -0.000
                    0.000 -0.000 -0.000
 255 CU  29  0.000  0.000 -0.000  0.000 -0.000  0.000 -0.000  0.000 -0.000
                    0.000 -0.000 -0.000
 256 CU  29  0.000  0.000 -0.000  0.000 -0.000  0.000 -0.000  0.000 -0.000
                    0.000 -0.000 -0.000
 257 CU  29  0.000  0.000 -0.000  0.000 -0.000  0.000 -0.000  0.000 -0.000
                    0.000 -0.000 -0.000
 258 CU  29  0.000  0.000 -0.000  0.000 -0.000  0.000 -0.000  0.000 -0.000
                    0.000 -0.000 -0.000
 259 CU  29  0.000  0.000 -0.000  0.000 -0.000  0.000 -0.000  0.000 -0.000
                    0.000 -0.000 -0.000
 260 CU  29  0.000  0.000 -0.000  0.000 -0.000  0.000 -0.000  0.000 -0.000
                    0.000 -0.000 -0.000
 261 CU  29  0.000  0.000 -0.000  0.000 -0.000  0.000 -0.000  0.000 -0.000
                    0.000 -0.000 -0.000
 262 CU  29  0.000  0.000 -0.000  0.000 -0.000  0.000 -0.000  0.000 -0.000
                    0.000 -0.000 -0.000
 263 CU  29  0.000  0.000 -0.000  0.000 -0.000  0.000 -0.000  0.000 -0.000
                    0.000 -0.000 -0.000
 264 CU  29  0.000  0.000 -0.000  0.000 -0.000  0.000 -0.000  0.000 -0.000
                    0.000 -0.000 -0.000
 265 CL  17  0.000  0.000  0.000  0.000 -0.000  0.000  0.000  0.000 -0.000
 266 CL  17  0.000  0.000  0.000  0.000 -0.000  0.000  0.000  0.000 -0.000
 267 CL  17  0.000  0.000  0.000  0.000 -0.000  0.000  0.000  0.000 -0.000
 268 CL  17  0.000  0.000  0.000  0.000 -0.000  0.000  0.000  0.000 -0.000
 269 CL  17  0.000  0.000  0.000  0.000 -0.000  0.000  0.000  0.000 -0.000
 270 CL  17  0.000  0.000  0.000  0.000 -0.000  0.000  0.000  0.000 -0.000
 271 CL  17  0.000  0.000  0.000  0.000 -0.000  0.000  0.000  0.000 -0.000
 272 CL  17  0.000  0.000  0.000  0.000 -0.000  0.000  0.000  0.000 -0.000
 273 CL  17  0.000  0.000  0.000  0.000 -0.000  0.000  0.000  0.000 -0.000
 274 CL  17  0.000  0.000  0.000  0.000 -0.000  0.000  0.000  0.000 -0.000
 275 CL  17  0.000  0.000  0.000  0.000 -0.000  0.000  0.000  0.000 -0.000
 276 CL  17  0.000  0.000  0.000  0.000 -0.000  0.000  0.000  0.000 -0.000
 277 CL  17  0.000  0.000  0.000  0.000 -0.000  0.000  0.000  0.000 -0.000
 278 CL  17  0.000  0.000  0.000  0.000 -0.000  0.000  0.000  0.000 -0.000
 279 CL  17  0.000  0.000  0.000  0.000 -0.000  0.000  0.000  0.000 -0.000
 280 CL  17  0.000  0.000  0.000  0.000 -0.000  0.000  0.000  0.000 -0.000
 281 CL  17  0.000  0.000  0.000  0.000 -0.000  0.000  0.000  0.000 -0.000
 282 CL  17  0.000  0.000  0.000  0.000 -0.000  0.000  0.000  0.000 -0.000
 283 CL  17  0.000  0.000  0.000  0.000 -0.000  0.000  0.000  0.000 -0.000
 284 CL  17  0.000  0.000  0.000  0.000 -0.000  0.000  0.000  0.000 -0.000
 285 CL  17  0.000  0.000  0.000  0.000 -0.000  0.000  0.000  0.000 -0.000
 286 CL  17  0.000  0.000  0.000  0.000 -0.000  0.000  0.000  0.000 -0.000
 287 CL  17  0.000  0.000  0.000  0.000 -0.000  0.000  0.000  0.000 -0.000
 288 CL  17  0.000  0.000  0.000  0.000 -0.000  0.000  0.000  0.000 -0.000
 289 C    6  0.000  0.000  0.000  0.000  0.000  0.000 -0.000
 290 C    6  0.000  0.000  0.000  0.000  0.000  0.000 -0.000
 291 C    6  0.000  0.000  0.000  0.000  0.000  0.000 -0.000
 292 C    6  0.000  0.000  0.000  0.000  0.000  0.000 -0.000
 293 C    6  0.000  0.000  0.000  0.000  0.000  0.000 -0.000
 294 C    6  0.000  0.000  0.000  0.000  0.000  0.000 -0.000

 OVERLAP POPULATION CONDENSED TO ATOMS FOR FIRST   6 NEIGHBORS

 ATOM A   1 C    ATOM B     CELL      R(AB)/AU R(AB)/ANG    OVPOP(AB)
                 25 H    (  0  0  0)     2.062     1.091     0.000
                193 N    (  0  0  0)     2.516     1.332    -0.000
                 49 C    (  0  0  0)     2.646     1.400     0.000
                145 C    (  0  0  0)     4.273     2.261     0.000
                 73 C    (  0  0  0)     4.500     2.381     0.000
                289 C    (  0  0  0)     4.897     2.592    -0.000

 ATOM A  25 H    ATOM B     CELL      R(AB)/AU R(AB)/ANG    OVPOP(AB)
                  1 C    (  0  0  0)     2.062     1.091     0.000
                193 N    (  0  0  0)     3.863     2.044    -0.000
                 49 C    (  0  0  0)     4.148     2.195     0.000
                 93 C    (  0  0  0)     4.712     2.493     0.000
                 69 C    (  0  0  0)     4.873     2.579    -0.000
                117 H    (  0  0  0)     5.011     2.652    -0.000

 ATOM A  49 C    ATOM B     CELL      R(AB)/AU R(AB)/ANG    OVPOP(AB)
                  1 C    (  0  0  0)     2.646     1.400     0.000
                 73 C    (  0  0  0)     2.656     1.405     0.000
                289 C    (  0  0  0)     2.884     1.526     0.000
                 25 H    (  0  0  0)     4.148     2.195     0.000
                 97 H    (  0  0  0)     4.177     2.210     0.000
                121 N    (  0  0  0)     4.502     2.383     0.000

 ATOM A  73 C    ATOM B     CELL      R(AB)/AU R(AB)/ANG    OVPOP(AB)
                 97 H    (  0  0  0)     2.071     1.096     0.000
                121 N    (  0  0  0)     2.501     1.323    -0.000
                 49 C    (  0  0  0)     2.656     1.405     0.000
                145 C    (  0  0  0)     4.279     2.265     0.000
                  1 C    (  0  0  0)     4.500     2.381     0.000
                 43 H    (  1  1  1)     4.712     2.493     0.000

 ATOM A  97 H    ATOM B     CELL      R(AB)/AU R(AB)/ANG    OVPOP(AB)
                 73 C    (  0  0  0)     2.071     1.096     0.000
                121 N    (  0  0  0)     3.855     2.040    -0.000
                 49 C    (  0  0  0)     4.177     2.210     0.000
                 43 H    (  1  1  1)     5.011     2.652    -0.000
                 51 C    (  0  0  0)     5.035     2.664    -0.000
                289 C    (  0  0  0)     5.278     2.793     0.000

 ATOM A 121 N    ATOM B     CELL      R(AB)/AU R(AB)/ANG    OVPOP(AB)
                 73 C    (  0  0  0)     2.501     1.323    -0.000
                145 C    (  0  0  0)     2.518     1.332     0.000
                 97 H    (  0  0  0)     3.855     2.040    -0.000
                257 CU   (  0  0  0)     4.457     2.358    -0.000
                169 C    (  0  0  0)     4.469     2.365     0.000
                193 N    (  0  0  0)     4.500     2.381    -0.000

 ATOM A 145 C    ATOM B     CELL      R(AB)/AU R(AB)/ANG    OVPOP(AB)
                193 N    (  0  0  0)     2.516     1.331     0.000
                121 N    (  0  0  0)     2.518     1.332     0.000
                169 C    (  0  0  0)     2.759     1.460    -0.000
                  1 C    (  0  0  0)     4.273     2.261     0.000
                 73 C    (  0  0  0)     4.279     2.265     0.000
                217 N    (  0  0  0)     4.536     2.400     0.000

 ATOM A 169 C    ATOM B     CELL      R(AB)/AU R(AB)/ANG    OVPOP(AB)
                221 N    (  0  0  0)     2.528     1.338     0.000
                217 N    (  0  0  0)     2.535     1.341     0.000
                145 C    (  0  0  0)     2.759     1.460    -0.000
                173 C    (  0  0  0)     4.295     2.273     0.000
                121 N    (  0  0  0)     4.469     2.365     0.000
                193 N    (  0  0  0)     4.513     2.388     0.000

 ATOM A 193 N    ATOM B     CELL      R(AB)/AU R(AB)/ANG    OVPOP(AB)
                145 C    (  0  0  0)     2.516     1.331     0.000
                  1 C    (  0  0  0)     2.516     1.332    -0.000
                 25 H    (  0  0  0)     3.863     2.044    -0.000
                121 N    (  0  0  0)     4.500     2.381    -0.000
                169 C    (  0  0  0)     4.513     2.388     0.000
                 49 C    (  0  0  0)     4.520     2.392     0.000

 ATOM A 217 N    ATOM B     CELL      R(AB)/AU R(AB)/ANG    OVPOP(AB)
                174 C    (  0  0  0)     2.528     1.338     0.000
                169 C    (  0  0  0)     2.535     1.341     0.000
                257 CU   (  0  0  0)     3.705     1.960    -0.000
                221 N    (  0  0  0)     4.468     2.364    -0.000
                145 C    (  0  0  0)     4.536     2.400     0.000
                150 C    (  0  0  0)     4.538     2.401     0.000

 ATOM A 241 CU   ATOM B     CELL      R(AB)/AU R(AB)/ANG    OVPOP(AB)
                233 N    (  0  0  0)     3.705     1.960    -0.000
                265 CL   (  0  0  0)     4.018     2.126    -0.000
                137 N    (  0  0  0)     4.457     2.358    -0.000
                205 N    (  0  0  0)     4.623     2.446    -0.000
                185 C    (  0  0  0)     5.469     2.894     0.000
                181 C    (  0  0  0)     5.494     2.907     0.000

 ATOM A 265 CL   ATOM B     CELL      R(AB)/AU R(AB)/ANG    OVPOP(AB)
                241 CU   (  0  0  0)     4.018     2.126    -0.000
                113 H    (  0  0  0)     6.059     3.206    -0.000
                137 N    (  0  0  0)     6.461     3.419    -0.000
                205 N    (  0  0  0)     7.105     3.760    -0.000
                 89 C    (  0  0  0)     7.148     3.783     0.000
                 37 H    (  0  0  0)     7.237     3.830    -0.000

 ATOM A 289 C    ATOM B     CELL      R(AB)/AU R(AB)/ANG    OVPOP(AB)
                 49 C    (  0  0  0)     2.884     1.526     0.000
                 73 C    (  0  0  0)     4.782     2.531    -0.000
                  1 C    (  0  0  0)     4.897     2.592    -0.000
                 97 H    (  0  0  0)     5.278     2.793     0.000
                 25 H    (  0  0  0)     5.447     2.882    -0.000
                121 N    (  0  0  0)     7.106     3.760     0.000
 EIGENVECTORS IN FORTRAN UNIT  8
 TTTTTTTTTTTTTTTTTTTTTTTTTTTTTT END         TELAPSE      709.46 TCPU      704.56
 MMMMM END         USED MEM(MB)     49.41 MAX MEM    230.76 TOT MEM      1185.83
 EEEEEEEEEE TERMINATION  DATE 28 04 2025 TIME 16:49:54.7
NODE    0 CPU TIME =       704.557
NODE    1 CPU TIME =       704.865
NODE    2 CPU TIME =       704.957
NODE    3 CPU TIME =       704.828
NODE    4 CPU TIME =       704.621
NODE    5 CPU TIME =       704.521
NODE    6 CPU TIME =       704.739
NODE    7 CPU TIME =       704.540
NODE    8 CPU TIME =       704.572
NODE    9 CPU TIME =       702.292
NODE   10 CPU TIME =       704.445
NODE   11 CPU TIME =       704.825
NODE   12 CPU TIME =       704.593
NODE   13 CPU TIME =       704.366
NODE   14 CPU TIME =       704.704
NODE   15 CPU TIME =       704.888
NODE   16 CPU TIME =       703.716
NODE   17 CPU TIME =       704.273
NODE   18 CPU TIME =       702.902
NODE   19 CPU TIME =       704.927
NODE   20 CPU TIME =       704.786
NODE   21 CPU TIME =       704.938
NODE   22 CPU TIME =       704.609
NODE   23 CPU TIME =       704.998
    TOTAL CPU TIME =     16907.460
