 PROCESS           16  OF           24  WORKING
 PROCESS           20  OF           24  WORKING
 PROCESS            0  OF           24  WORKING
 PROCESS           13  OF           24  WORKING
 PROCESS            1  OF           24  WORKING
 PROCESS            6  OF           24  WORKING
 PROCESS           11  OF           24  WORKING
 PROCESS           19  OF           24  WORKING
 PROCESS            2  OF           24  WORKING
 PROCESS            9  OF           24  WORKING
 PROCESS           22  OF           24  WORKING
 PROCESS           21  OF           24  WORKING
 PROCESS           17  OF           24  WORKING
 PROCESS           23  OF           24  WORKING
 PROCESS            8  OF           24  WORKING
 PROCESS           15  OF           24  WORKING
 PROCESS            3  OF           24  WORKING
 PROCESS            4  OF           24  WORKING
 PROCESS            7  OF           24  WORKING
 PROCESS           18  OF           24  WORKING
 PROCESS            5  OF           24  WORKING
 PROCESS           14  OF           24  WORKING

         
 *******************************************************************************
 *                                                                             *
 *                               CRYSTAL23                                     *
 *                      public : 1.0.1 - October 2022                          *
 *                       HTTP://WWW.CRYSTAL.UNITO.IT                           *
 *                                                                             *
 *                              MAIN AUTHORS                                   *
 *                                                                             *
 *  R. DOVESI(1,11), V.R. SAUNDERS(2), C. ROETTI(1,11), R. ORLANDO(1,11),      *
 *  C.M. ZICOVICH-WILSON(1,3), F. PASCALE(4), B. CIVALLERI(1,11),              *
 *  K. DOLL(5), N.M. HARRISON(6), I.J. BUSH(7), Ph. D'ARCO(8),                 *
 *  M. LLUNELL(9), M. CAUSA'(10), Y. NOEL(8), L. MASCHIO(1,11), A. ERBA(1,11)  *
 *  M. RE'RAT(14), S. CASASSA(1,11), B.G. SEARLE(2), J.K. DESMARAIS(1)         *
 *                                                                             *
 *        CONTRIBUTIONS TO THE CODE HAVE ALSO BEEN GIVEN BY                    *
 PROCESS           12  OF           24  WORKING
 *                                                                             *
 *  M. FERRABONE(1,11), M. DE LA PIERRE(1,11), M. FERRERO(1,11),               *
 *  J. BAIMA(1,11), E. ALBANESE(1,11), M.F. PEINTINGER(12), R. BAST(13),       *
 *  B. KIRTMAN(15), V. LACIVITA(1,11), R. DEMICHELIS(1,16)                     *
 *  G. BRANDEBURG(17), S. SALUSTRO(1,11), G. SANSONE(1,11)                     *
 *  M.T. RUGGIERO(18), L.E. DAGA(1), L. DONA'(1), A. COSSARD(1)                *
 *                                                                             *
 * (1) THEORETICAL CHEMISTRY GROUP - UNIVERSITA' DI TORINO - TORINO (ITALY)    *
 * (2) SCIENTIFIC COMPUTING DEPARTMENT - STFC DARESBURY (UK)                   *
 * (3) UNIVERSIDAD AUTONOMA DEL ESTADO DE MORELOS - CUERNAVACA (MEXICO)        *
 * (4) UNIVERSITE' DE LORRAINE - NANCY (FRANCE)                                *
 * (5) UNIVERSITAET STUTTGART- STUTTGART (GERMANY)                             *
 * (6) IMPERIAL COLLEGE - LONDON (UK)                                          *
 * (7) SCIENTIFIC COMPUTING DEPARTMENT - STFC RAL (UK)                         *
 * (8) UPMC - SORBONNE UNIVERSITES - PARIS (FRANCE)                            *
 * (9) UNIVERSIDAD DE BARCELONA - BARCELONA (SPAIN)                            *
 *(10) UNIVERSITA' DI NAPOLI "FEDERICO II" - NAPOLI (ITALY)                    *
 *(11) NIS - NANOSTRUCTURED INTERFACES AND SURFACES - TORINO (ITALY)           *
 *(12) MPI FUER CHEMISCHE ENERGIEKONVERSION - MUELHEIM AN DER RUHR (GERMANY)   *
 *(13) UNIVERSITY OF TROMSO - TROMSO (NORWAY)                                  *
 *(14) UNIVERSITE' DE PAU ET DES PAYS DE L'ADOUR - PAU (FRANCE)                *
 *(15) UNIVERSITY OF CALIFORNIA SANTA BARBARA - SANTA BARBARA (USA)            *
 *(16) CURTIN UNIVERSITY - PERTH (AUSTRALIA)                                   *
 *(17) UNIVERSITY COLLEGE LONDON - LONDON (UK)                                 *
 *(18) UNIVERSITY OF VERMONT - BURLINGTON (USA)                                *
 *                                                                             *
 *******************************************************************************
 EEEEEEEEEE STARTING  DATE 28 04 2025 TIME 16:37:12.0
 ExtPandaCOF102_sym                                                              
 PROCESS           10  OF           24  WORKING

 CRYSTAL CALCULATION
 (INPUT ACCORDING TO THE INTERNATIONAL TABLES FOR X-RAY CRYSTALLOGRAPHY)
 CRYSTAL FAMILY                       :  CUBIC       
 CRYSTAL CLASS  (GROTH - 1921)        :  CUBIC HEXAKISTETRAHEDRAL             

 SPACE GROUP (NONCENTROSYMMETRIC)     :  I -4 3 D        

 LATTICE PARAMETERS  (ANGSTROMS AND DEGREES) - CONVENTIONAL CELL
        A           B           C        ALPHA        BETA       GAMMA
    51.44726    51.44726    51.44726    90.00000    90.00000    90.00000


 NUMBER OF IRREDUCIBLE ATOMS IN THE CONVENTIONAL CELL:   26

 INPUT COORDINATES

 ATOM AT. N.              COORDINATES
   1   6     2.150595659737E-01  2.874579367122E-01  1.240111240930E-01
   2   6     2.455203686530E-01  2.516390870128E-01  1.300601147195E-01
   3   1     2.709597780130E-01  3.038999200508E-01  5.230998113786E-02
   4   6     2.002707887657E-01  2.812375189363E-01  1.450579577118E-01
   5   1     2.771187807968E-01  3.328956131249E-01  1.429089868471E-02
   6   1     2.024620114601E-01  3.465910801164E-01  7.335686583666E-02
   7   6     2.192089100630E-01  3.438093726198E-01  6.069570975475E-02
   8   6     2.575405569936E-01  3.199293335170E-01  4.892772765992E-02
   9   6     2.364335420905E-01  3.234406110403E-01  6.582346844891E-02
  10   6     2.612065607308E-01  3.363096888021E-01  2.786187383226E-02
  11   6     2.442590482490E-01  3.571871629646E-01  2.319813411841E-02
  12   6     2.230099590492E-01  3.604712378494E-01  3.971188670935E-02
  13   1     2.091735677013E-01  3.760304957930E-01  3.599775935660E-02
  14   6     2.373114003403E-01  2.729335491847E-01  1.166617639214E-01
  15   5     2.321351012076E-01  3.052350792971E-01  8.887746091303E-02
  16   7     1.940413133648E-01  2.522937176079E-01  1.806362925607E-01
  17   6     2.081229236056E-01  2.591312935166E-01  1.596604715616E-01
  18   8     2.478812759234E-01  2.840610480962E-01  9.485863940085E-02
  19   6     2.306224902232E-01  2.443709989737E-01  1.521693394617E-01
  20   7     2.379960096889E-01  2.233582838337E-01  1.659215493249E-01
  21   8     2.119166882841E-01  3.075011715155E-01  1.067119706807E-01
  22   6     2.015864942685E-01  2.316050952679E-01  1.939548072464E-01
  23   6     2.238902766775E-01  2.168706947899E-01  1.864466194188E-01
  24   1     2.624851620016E-01  2.402811255394E-01  1.246749153841E-01
  25   1     1.831920831774E-01  2.921561802547E-01  1.509662229970E-01
  26   6     1.250000000000E-01 -8.175806062900E-17 -2.500000000000E-01

 *******************************************************************************

 << INFORMATION >>: FROM NOW ON, ALL COORDINATES REFER TO THE PRIMITIVE CELL

 *******************************************************************************

 LATTICE PARAMETERS  (ANGSTROMS AND DEGREES) - PRIMITIVE CELL
       A          B          C        ALPHA      BETA     GAMMA        VOLUME
   44.55463   44.55463   44.55463   109.47122 109.47122 109.47122  68085.818865

 COORDINATES OF THE EQUIVALENT ATOMS (FRACTIONAL UNITS)

 N. ATOM EQUIV AT. N.          X                  Y                  Z

   1   1   1    6 C     4.11469060805E-01  3.39070690067E-01 -4.97482497314E-01
   2   1   2    6 C     3.36553187381E-01 -9.10484418807E-02 -2.51750268590E-03
   3   1   3    6 C     8.85309391948E-02 -4.08951558119E-01 -7.23983707385E-02
   4   1   4    6 C     1.63446812619E-01  1.60929309933E-01 -4.27601629262E-01
   5   1   5    6 C    -4.97482497314E-01  4.11469060805E-01  3.39070690067E-01
   6   1   6    6 C     3.39070690067E-01 -4.97482497314E-01  4.11469060805E-01
   7   1   7    6 C    -4.27601629262E-01  1.63446812619E-01  1.60929309933E-01
   8   1   8    6 C    -9.10484418807E-02 -2.51750268590E-03  3.36553187381E-01
   9   1   9    6 C    -2.51750268590E-03  3.36553187381E-01 -9.10484418807E-02
  10   1  10    6 C    -4.08951558119E-01 -7.23983707385E-02  8.85309391948E-02
  11   1  11    6 C    -7.23983707385E-02  8.85309391948E-02 -4.08951558119E-01
  12   1  12    6 C     1.60929309933E-01 -4.27601629262E-01  1.63446812619E-01
  13   1  13    6 C    -1.60929309933E-01 -8.85309391948E-02  2.51750268590E-03
  14   1  14    6 C     4.08951558119E-01 -1.63446812619E-01  4.97482497314E-01
  15   1  15    6 C     9.10484418807E-02 -4.11469060805E-01  4.27601629262E-01
  16   1  16    6 C    -3.39070690067E-01 -3.36553187381E-01  7.23983707385E-02
  17   1  17    6 C    -8.85309391948E-02  2.51750268590E-03 -1.60929309933E-01
  18   1  18    6 C     2.51750268590E-03 -1.60929309933E-01 -8.85309391948E-02
  19   1  19    6 C    -3.36553187381E-01  7.23983707385E-02 -3.39070690067E-01
  20   1  20    6 C     4.97482497314E-01  4.08951558119E-01 -1.63446812619E-01
  21   1  21    6 C    -1.63446812619E-01  4.97482497314E-01  4.08951558119E-01
  22   1  22    6 C     4.27601629262E-01  9.10484418807E-02 -4.11469060805E-01
  23   1  23    6 C    -4.11469060805E-01  4.27601629262E-01  9.10484418807E-02
  24   1  24    6 C     7.23983707385E-02 -3.39070690067E-01 -3.36553187381E-01

  25   2   1    6 C     3.81699201732E-01  3.75580483372E-01  4.97159455666E-01
  26   2   2    6 C     3.78421027707E-01 -1.15460253934E-01  2.84054433420E-03
  27   2   3    6 C     1.18300798268E-01 -3.84539746066E-01 -6.11871835980E-03
  28   2   4    6 C     1.21578972293E-01  1.24419516628E-01 -4.93881281640E-01
  29   2   5    6 C     4.97159455666E-01  3.81699201732E-01  3.75580483372E-01
  30   2   6    6 C     3.75580483372E-01  4.97159455666E-01  3.81699201732E-01
  31   2   7    6 C    -4.93881281640E-01  1.21578972293E-01  1.24419516628E-01
  32   2   8    6 C    -1.15460253934E-01  2.84054433420E-03  3.78421027707E-01
  33   2   9    6 C     2.84054433420E-03  3.78421027707E-01 -1.15460253934E-01
  34   2  10    6 C    -3.84539746066E-01 -6.11871835980E-03  1.18300798268E-01
  35   2  11    6 C    -6.11871835980E-03  1.18300798268E-01 -3.84539746066E-01
  36   2  12    6 C     1.24419516628E-01 -4.93881281640E-01  1.21578972293E-01
  37   2  13    6 C    -1.24419516628E-01 -1.18300798268E-01 -2.84054433420E-03
  38   2  14    6 C     3.84539746066E-01 -1.21578972293E-01 -4.97159455666E-01
  39   2  15    6 C     1.15460253934E-01 -3.81699201732E-01  4.93881281640E-01
  40   2  16    6 C    -3.75580483372E-01 -3.78421027707E-01  6.11871835980E-03
  41   2  17    6 C    -1.18300798268E-01 -2.84054433420E-03 -1.24419516628E-01
  42   2  18    6 C    -2.84054433420E-03 -1.24419516628E-01 -1.18300798268E-01
  43   2  19    6 C    -3.78421027707E-01  6.11871835980E-03 -3.75580483372E-01
  44   2  20    6 C    -4.97159455666E-01  3.84539746066E-01 -1.21578972293E-01
  45   2  21    6 C    -1.21578972293E-01 -4.97159455666E-01  3.84539746066E-01
  46   2  22    6 C     4.93881281640E-01  1.15460253934E-01 -3.81699201732E-01
  47   2  23    6 C    -3.81699201732E-01  4.93881281640E-01  1.15460253934E-01
  48   2  24    6 C     6.11871835980E-03 -3.75580483372E-01 -3.78421027707E-01

  49   3   1    1 H     3.56209901189E-01  3.23269759151E-01 -4.25140301936E-01
  50   3   2    1 H     2.48410061087E-01 -2.18649796875E-01 -7.48596980638E-02
  51   3   3    1 H     1.43790098811E-01 -2.81350203125E-01 -3.29401420378E-02
  52   3   4    1 H     2.51589938913E-01  1.76730240849E-01 -4.67059857962E-01
  53   3   5    1 H    -4.25140301936E-01  3.56209901189E-01  3.23269759151E-01
  54   3   6    1 H     3.23269759151E-01 -4.25140301936E-01  3.56209901189E-01
  55   3   7    1 H    -4.67059857962E-01  2.51589938913E-01  1.76730240849E-01
  56   3   8    1 H    -2.18649796875E-01 -7.48596980638E-02  2.48410061087E-01
  57   3   9    1 H    -7.48596980638E-02  2.48410061087E-01 -2.18649796875E-01
  58   3  10    1 H    -2.81350203125E-01 -3.29401420378E-02  1.43790098811E-01
  59   3  11    1 H    -3.29401420378E-02  1.43790098811E-01 -2.81350203125E-01
  60   3  12    1 H     1.76730240849E-01 -4.67059857962E-01  2.51589938913E-01
  61   3  13    1 H    -1.76730240849E-01 -1.43790098811E-01  7.48596980638E-02
  62   3  14    1 H     2.81350203125E-01 -2.51589938913E-01  4.25140301936E-01
  63   3  15    1 H     2.18649796875E-01 -3.56209901189E-01  4.67059857962E-01
  64   3  16    1 H    -3.23269759151E-01 -2.48410061087E-01  3.29401420378E-02
  65   3  17    1 H    -1.43790098811E-01  7.48596980638E-02 -1.76730240849E-01
  66   3  18    1 H     7.48596980638E-02 -1.76730240849E-01 -1.43790098811E-01
  67   3  19    1 H    -2.48410061087E-01  3.29401420378E-02 -3.23269759151E-01
  68   3  20    1 H     4.25140301936E-01  2.81350203125E-01 -2.51589938913E-01
  69   3  21    1 H    -2.51589938913E-01  4.25140301936E-01  2.81350203125E-01
  70   3  22    1 H     4.67059857962E-01  2.18649796875E-01 -3.56209901189E-01
  71   3  23    1 H    -3.56209901189E-01  4.67059857962E-01  2.18649796875E-01
  72   3  24    1 H     3.29401420378E-02 -3.23269759151E-01 -2.48410061087E-01

  73   4   1    6 C     4.26295476648E-01  3.45328746478E-01  4.81508307702E-01
  74   4   2    6 C     3.63820438775E-01 -5.52128310539E-02  1.84916922980E-02
  75   4   3    6 C     7.37045233519E-02 -4.44787168946E-01 -8.09667301706E-02
  76   4   4    6 C     1.36179561225E-01  1.54671253522E-01 -4.19033269829E-01
  77   4   5    6 C     4.81508307702E-01  4.26295476648E-01  3.45328746478E-01
  78   4   6    6 C     3.45328746478E-01  4.81508307702E-01  4.26295476648E-01
  79   4   7    6 C    -4.19033269829E-01  1.36179561225E-01  1.54671253522E-01
  80   4   8    6 C    -5.52128310539E-02  1.84916922980E-02  3.63820438775E-01
  81   4   9    6 C     1.84916922980E-02  3.63820438775E-01 -5.52128310539E-02
  82   4  10    6 C    -4.44787168946E-01 -8.09667301706E-02  7.37045233519E-02
  83   4  11    6 C    -8.09667301706E-02  7.37045233519E-02 -4.44787168946E-01
  84   4  12    6 C     1.54671253522E-01 -4.19033269829E-01  1.36179561225E-01
  85   4  13    6 C    -1.54671253522E-01 -7.37045233519E-02 -1.84916922980E-02
  86   4  14    6 C     4.44787168946E-01 -1.36179561225E-01 -4.81508307702E-01
  87   4  15    6 C     5.52128310539E-02 -4.26295476648E-01  4.19033269829E-01
  88   4  16    6 C    -3.45328746478E-01 -3.63820438775E-01  8.09667301706E-02
  89   4  17    6 C    -7.37045233519E-02 -1.84916922980E-02 -1.54671253522E-01
  90   4  18    6 C    -1.84916922980E-02 -1.54671253522E-01 -7.37045233519E-02
  91   4  19    6 C    -3.63820438775E-01  8.09667301706E-02 -3.45328746478E-01
  92   4  20    6 C    -4.81508307702E-01  4.44787168946E-01 -1.36179561225E-01
  93   4  21    6 C    -1.36179561225E-01 -4.81508307702E-01  4.44787168946E-01
  94   4  22    6 C     4.19033269829E-01  5.52128310539E-02 -4.26295476648E-01
  95   4  23    6 C    -4.26295476648E-01  4.19033269829E-01  5.52128310539E-02
  96   4  24    6 C     8.09667301706E-02 -3.45328746478E-01 -3.63820438775E-01

  97   5   1    1 H     3.47186511810E-01  2.91409679482E-01 -3.89985606078E-01
  98   5   2    1 H     1.81395285560E-01 -2.62827882112E-01 -1.10014393922E-01
  99   5   3    1 H     1.52813488190E-01 -2.37172117888E-01 -5.57768323281E-02
 100   5   4    1 H     3.18604714440E-01  2.08590320518E-01 -4.44223167672E-01
 101   5   5    1 H    -3.89985606078E-01  3.47186511810E-01  2.91409679482E-01
 102   5   6    1 H     2.91409679482E-01 -3.89985606078E-01  3.47186511810E-01
 103   5   7    1 H    -4.44223167672E-01  3.18604714440E-01  2.08590320518E-01
 104   5   8    1 H    -2.62827882112E-01 -1.10014393922E-01  1.81395285560E-01
 105   5   9    1 H    -1.10014393922E-01  1.81395285560E-01 -2.62827882112E-01
 106   5  10    1 H    -2.37172117888E-01 -5.57768323281E-02  1.52813488190E-01
 107   5  11    1 H    -5.57768323281E-02  1.52813488190E-01 -2.37172117888E-01
 108   5  12    1 H     2.08590320518E-01 -4.44223167672E-01  3.18604714440E-01
 109   5  13    1 H    -2.08590320518E-01 -1.52813488190E-01  1.10014393922E-01
 110   5  14    1 H     2.37172117888E-01 -3.18604714440E-01  3.89985606078E-01
 111   5  15    1 H     2.62827882112E-01 -3.47186511810E-01  4.44223167672E-01
 112   5  16    1 H    -2.91409679482E-01 -1.81395285560E-01  5.57768323281E-02
 113   5  17    1 H    -1.52813488190E-01  1.10014393922E-01 -2.08590320518E-01
 114   5  18    1 H     1.10014393922E-01 -2.08590320518E-01 -1.52813488190E-01
 115   5  19    1 H    -1.81395285560E-01  5.57768323281E-02 -2.91409679482E-01
 116   5  20    1 H     3.89985606078E-01  2.37172117888E-01 -3.18604714440E-01
 117   5  21    1 H    -3.18604714440E-01  3.89985606078E-01  2.37172117888E-01
 118   5  22    1 H     4.44223167672E-01  2.62827882112E-01 -3.47186511810E-01
 119   5  23    1 H    -3.47186511810E-01  4.44223167672E-01  2.62827882112E-01
 120   5  24    1 H     5.57768323281E-02 -2.91409679482E-01 -1.81395285560E-01

 121   6   1    1 H     4.19947945953E-01  2.75818877297E-01 -4.50946908424E-01
 122   6   2    1 H     2.26765785720E-01 -1.29105145623E-01 -4.90530915765E-02
 123   6   3    1 H     8.00520540469E-02 -3.70894854377E-01 -1.44129068656E-01
 124   6   4    1 H     2.73234214280E-01  2.24181122703E-01 -3.55870931344E-01
 125   6   5    1 H    -4.50946908424E-01  4.19947945953E-01  2.75818877297E-01
 126   6   6    1 H     2.75818877297E-01 -4.50946908424E-01  4.19947945953E-01
 127   6   7    1 H    -3.55870931344E-01  2.73234214280E-01  2.24181122703E-01
 128   6   8    1 H    -1.29105145623E-01 -4.90530915765E-02  2.26765785720E-01
 129   6   9    1 H    -4.90530915765E-02  2.26765785720E-01 -1.29105145623E-01
 130   6  10    1 H    -3.70894854377E-01 -1.44129068656E-01  8.00520540469E-02
 131   6  11    1 H    -1.44129068656E-01  8.00520540469E-02 -3.70894854377E-01
 132   6  12    1 H     2.24181122703E-01 -3.55870931344E-01  2.73234214280E-01
 133   6  13    1 H    -2.24181122703E-01 -8.00520540469E-02  4.90530915765E-02
 134   6  14    1 H     3.70894854377E-01 -2.73234214280E-01  4.50946908423E-01
 135   6  15    1 H     1.29105145623E-01 -4.19947945953E-01  3.55870931344E-01
 136   6  16    1 H    -2.75818877297E-01 -2.26765785720E-01  1.44129068656E-01
 137   6  17    1 H    -8.00520540469E-02  4.90530915765E-02 -2.24181122703E-01
 138   6  18    1 H     4.90530915765E-02 -2.24181122703E-01 -8.00520540469E-02
 139   6  19    1 H    -2.26765785720E-01  1.44129068656E-01 -2.75818877297E-01
 140   6  20    1 H     4.50946908423E-01  3.70894854377E-01 -2.73234214280E-01
 141   6  21    1 H    -2.73234214280E-01  4.50946908423E-01  3.70894854377E-01
 142   6  22    1 H     3.55870931344E-01  1.29105145623E-01 -4.19947945953E-01
 143   6  23    1 H    -4.19947945953E-01  3.55870931344E-01  1.29105145623E-01
 144   6  24    1 H     1.44129068656E-01 -2.75818877297E-01 -2.26765785720E-01

 145   7   1    6 C     4.04505082375E-01  2.79904619818E-01 -4.36981717317E-01
 146   7   2    6 C     2.16886337135E-01 -1.58513200308E-01 -6.30182826828E-02
 147   7   3    6 C     9.54949176254E-02 -3.41486799692E-01 -1.24600462557E-01
 148   7   4    6 C     2.83113662865E-01  2.20095380182E-01 -3.75399537443E-01
 149   7   5    6 C    -4.36981717317E-01  4.04505082375E-01  2.79904619818E-01
 150   7   6    6 C     2.79904619818E-01 -4.36981717317E-01  4.04505082375E-01
 151   7   7    6 C    -3.75399537443E-01  2.83113662865E-01  2.20095380182E-01
 152   7   8    6 C    -1.58513200308E-01 -6.30182826828E-02  2.16886337135E-01
 153   7   9    6 C    -6.30182826828E-02  2.16886337135E-01 -1.58513200308E-01
 154   7  10    6 C    -3.41486799692E-01 -1.24600462557E-01  9.54949176254E-02
 155   7  11    6 C    -1.24600462557E-01  9.54949176254E-02 -3.41486799692E-01
 156   7  12    6 C     2.20095380182E-01 -3.75399537443E-01  2.83113662865E-01
 157   7  13    6 C    -2.20095380182E-01 -9.54949176255E-02  6.30182826828E-02
 158   7  14    6 C     3.41486799692E-01 -2.83113662865E-01  4.36981717317E-01
 159   7  15    6 C     1.58513200308E-01 -4.04505082375E-01  3.75399537443E-01
 160   7  16    6 C    -2.79904619818E-01 -2.16886337135E-01  1.24600462557E-01
 161   7  17    6 C    -9.54949176255E-02  6.30182826828E-02 -2.20095380182E-01
 162   7  18    6 C     6.30182826828E-02 -2.20095380182E-01 -9.54949176255E-02
 163   7  19    6 C    -2.16886337135E-01  1.24600462557E-01 -2.79904619818E-01
 164   7  20    6 C     4.36981717317E-01  3.41486799692E-01 -2.83113662865E-01
 165   7  21    6 C    -2.83113662865E-01  4.36981717317E-01  3.41486799692E-01
 166   7  22    6 C     3.75399537443E-01  1.58513200308E-01 -4.04505082375E-01
 167   7  23    6 C    -4.04505082375E-01  3.75399537443E-01  1.58513200308E-01
 168   7  24    6 C     1.24600462557E-01 -2.79904619818E-01 -2.16886337135E-01

 169   8   1    6 C     3.68857061177E-01  3.06468284654E-01 -4.22530109489E-01
 170   8   2    6 C     2.28998394143E-01 -2.08612829334E-01 -7.74698905106E-02
 171   8   3    6 C     1.31142938823E-01 -2.91387170666E-01 -6.23887765234E-02
 172   8   4    6 C     2.71001605857E-01  1.93531715346E-01 -4.37611223477E-01
 173   8   5    6 C    -4.22530109489E-01  3.68857061177E-01  3.06468284654E-01
 174   8   6    6 C     3.06468284654E-01 -4.22530109489E-01  3.68857061177E-01
 175   8   7    6 C    -4.37611223477E-01  2.71001605857E-01  1.93531715346E-01
 176   8   8    6 C    -2.08612829334E-01 -7.74698905106E-02  2.28998394143E-01
 177   8   9    6 C    -7.74698905106E-02  2.28998394143E-01 -2.08612829334E-01
 178   8  10    6 C    -2.91387170666E-01 -6.23887765234E-02  1.31142938823E-01
 179   8  11    6 C    -6.23887765234E-02  1.31142938823E-01 -2.91387170666E-01
 180   8  12    6 C     1.93531715346E-01 -4.37611223477E-01  2.71001605857E-01
 181   8  13    6 C    -1.93531715346E-01 -1.31142938823E-01  7.74698905106E-02
 182   8  14    6 C     2.91387170666E-01 -2.71001605857E-01  4.22530109489E-01
 183   8  15    6 C     2.08612829334E-01 -3.68857061177E-01  4.37611223477E-01
 184   8  16    6 C    -3.06468284654E-01 -2.28998394143E-01  6.23887765234E-02
 185   8  17    6 C    -1.31142938823E-01  7.74698905106E-02 -1.93531715346E-01
 186   8  18    6 C     7.74698905106E-02 -1.93531715346E-01 -1.31142938823E-01
 187   8  19    6 C    -2.28998394143E-01  6.23887765234E-02 -3.06468284654E-01
 188   8  20    6 C     4.22530109489E-01  2.91387170666E-01 -2.71001605857E-01
 189   8  21    6 C    -2.71001605857E-01  4.22530109489E-01  2.91387170666E-01
 190   8  22    6 C     4.37611223477E-01  2.08612829334E-01 -3.68857061177E-01
 191   8  23    6 C    -3.68857061177E-01  4.37611223477E-01  2.08612829334E-01
 192   8  24    6 C     6.23887765234E-02 -3.06468284654E-01 -2.28998394143E-01

 193   9   1    6 C     3.89264079489E-01  3.02257010539E-01 -4.40125846869E-01
 194   9   2    6 C     2.42382857409E-01 -1.70610073642E-01 -5.98741531308E-02
 195   9   3    6 C     1.10735920511E-01 -3.29389926358E-01 -8.70070689498E-02
 196   9   4    6 C     2.57617142591E-01  1.97742989461E-01 -4.12992931050E-01
 197   9   5    6 C    -4.40125846869E-01  3.89264079489E-01  3.02257010539E-01
 198   9   6    6 C     3.02257010539E-01 -4.40125846869E-01  3.89264079489E-01
 199   9   7    6 C    -4.12992931050E-01  2.57617142591E-01  1.97742989461E-01
 200   9   8    6 C    -1.70610073642E-01 -5.98741531308E-02  2.42382857409E-01
 201   9   9    6 C    -5.98741531308E-02  2.42382857409E-01 -1.70610073642E-01
 202   9  10    6 C    -3.29389926358E-01 -8.70070689498E-02  1.10735920511E-01
 203   9  11    6 C    -8.70070689498E-02  1.10735920511E-01 -3.29389926358E-01
 204   9  12    6 C     1.97742989461E-01 -4.12992931050E-01  2.57617142591E-01
 205   9  13    6 C    -1.97742989461E-01 -1.10735920511E-01  5.98741531308E-02
 206   9  14    6 C     3.29389926358E-01 -2.57617142591E-01  4.40125846869E-01
 207   9  15    6 C     1.70610073642E-01 -3.89264079489E-01  4.12992931050E-01
 208   9  16    6 C    -3.02257010539E-01 -2.42382857409E-01  8.70070689498E-02
 209   9  17    6 C    -1.10735920511E-01  5.98741531308E-02 -1.97742989461E-01
 210   9  18    6 C     5.98741531308E-02 -1.97742989461E-01 -1.10735920511E-01
 211   9  19    6 C    -2.42382857409E-01  8.70070689498E-02 -3.02257010539E-01
 212   9  20    6 C     4.40125846869E-01  3.29389926358E-01 -2.57617142591E-01
 213   9  21    6 C    -2.57617142591E-01  4.40125846869E-01  3.29389926358E-01
 214   9  22    6 C     4.12992931050E-01  1.70610073642E-01 -3.89264079489E-01
 215   9  23    6 C    -3.89264079489E-01  4.12992931050E-01  1.70610073642E-01
 216   9  24    6 C     8.70070689498E-02 -3.02257010539E-01 -2.42382857409E-01

 217  10   1    6 C     3.64171562634E-01  2.89068434563E-01 -4.02483750467E-01
 218  10   2    6 C     1.91552185030E-01 -2.33344686899E-01 -9.75162495329E-02
 219  10   3    6 C     1.35828437366E-01 -2.66655313101E-01 -7.51031280713E-02
 220  10   4    6 C     3.08447814970E-01  2.10931565437E-01 -4.24896871929E-01
 221  10   5    6 C    -4.02483750467E-01  3.64171562634E-01  2.89068434563E-01
 222  10   6    6 C     2.89068434563E-01 -4.02483750467E-01  3.64171562634E-01
 223  10   7    6 C    -4.24896871929E-01  3.08447814970E-01  2.10931565437E-01
 224  10   8    6 C    -2.33344686899E-01 -9.75162495329E-02  1.91552185030E-01
 225  10   9    6 C    -9.75162495329E-02  1.91552185030E-01 -2.33344686899E-01
 226  10  10    6 C    -2.66655313101E-01 -7.51031280713E-02  1.35828437366E-01
 227  10  11    6 C    -7.51031280713E-02  1.35828437366E-01 -2.66655313101E-01
 228  10  12    6 C     2.10931565437E-01 -4.24896871929E-01  3.08447814970E-01
 229  10  13    6 C    -2.10931565437E-01 -1.35828437366E-01  9.75162495329E-02
 230  10  14    6 C     2.66655313101E-01 -3.08447814970E-01  4.02483750467E-01
 231  10  15    6 C     2.33344686899E-01 -3.64171562634E-01  4.24896871929E-01
 232  10  16    6 C    -2.89068434563E-01 -1.91552185030E-01  7.51031280713E-02
 233  10  17    6 C    -1.35828437366E-01  9.75162495329E-02 -2.10931565437E-01
 234  10  18    6 C     9.75162495329E-02 -2.10931565437E-01 -1.35828437366E-01
 235  10  19    6 C    -1.91552185030E-01  7.51031280713E-02 -2.89068434563E-01
 236  10  20    6 C     4.02483750467E-01  2.66655313101E-01 -3.08447814970E-01
 237  10  21    6 C    -3.08447814970E-01  4.02483750467E-01  2.66655313101E-01
 238  10  22    6 C     4.24896871929E-01  2.33344686899E-01 -3.64171562634E-01
 239  10  23    6 C    -3.64171562634E-01  4.24896871929E-01  2.33344686899E-01
 240  10  24    6 C     7.51031280713E-02 -2.89068434563E-01 -1.91552185030E-01

 241  11   1    6 C     3.80385297083E-01  2.67457182367E-01 -3.98553788786E-01
 242  11   2    6 C     1.66010971154E-01 -2.21060914131E-01 -1.01446211214E-01
 243  11   3    6 C     1.19614702917E-01 -2.78939085869E-01 -1.12928114716E-01
 244  11   4    6 C     3.33989028846E-01  2.32542817633E-01 -3.87071885284E-01
 245  11   5    6 C    -3.98553788786E-01  3.80385297083E-01  2.67457182367E-01
 246  11   6    6 C     2.67457182367E-01 -3.98553788786E-01  3.80385297083E-01
 247  11   7    6 C    -3.87071885284E-01  3.33989028846E-01  2.32542817633E-01
 248  11   8    6 C    -2.21060914131E-01 -1.01446211214E-01  1.66010971154E-01
 249  11   9    6 C    -1.01446211214E-01  1.66010971154E-01 -2.21060914131E-01
 250  11  10    6 C    -2.78939085869E-01 -1.12928114716E-01  1.19614702917E-01
 251  11  11    6 C    -1.12928114716E-01  1.19614702917E-01 -2.78939085869E-01
 252  11  12    6 C     2.32542817633E-01 -3.87071885284E-01  3.33989028846E-01
 253  11  13    6 C    -2.32542817633E-01 -1.19614702917E-01  1.01446211214E-01
 254  11  14    6 C     2.78939085869E-01 -3.33989028846E-01  3.98553788786E-01
 255  11  15    6 C     2.21060914131E-01 -3.80385297083E-01  3.87071885284E-01
 256  11  16    6 C    -2.67457182367E-01 -1.66010971154E-01  1.12928114716E-01
 257  11  17    6 C    -1.19614702917E-01  1.01446211214E-01 -2.32542817633E-01
 258  11  18    6 C     1.01446211214E-01 -2.32542817633E-01 -1.19614702917E-01
 259  11  19    6 C    -1.66010971154E-01  1.12928114716E-01 -2.67457182367E-01
 260  11  20    6 C     3.98553788786E-01  2.78939085869E-01 -3.33989028846E-01
 261  11  21    6 C    -3.33989028846E-01  3.98553788786E-01  2.78939085869E-01
 262  11  22    6 C     3.87071885284E-01  2.21060914131E-01 -3.80385297083E-01
 263  11  23    6 C    -3.80385297083E-01  3.87071885284E-01  2.21060914131E-01
 264  11  24    6 C     1.12928114716E-01 -2.67457182367E-01 -1.66010971154E-01

 265  12   1    6 C     4.00183124559E-01  2.62721845759E-01 -4.16518803101E-01
 266  12   2    6 C     1.79240648860E-01 -1.83298072340E-01 -8.34811968986E-02
 267  12   3    6 C     9.98168754413E-02 -3.16701927660E-01 -1.37461278800E-01
 268  12   4    6 C     3.20759351140E-01  2.37278154241E-01 -3.62538721200E-01
 269  12   5    6 C    -4.16518803101E-01  4.00183124559E-01  2.62721845759E-01
 270  12   6    6 C     2.62721845759E-01 -4.16518803101E-01  4.00183124559E-01
 271  12   7    6 C    -3.62538721200E-01  3.20759351140E-01  2.37278154241E-01
 272  12   8    6 C    -1.83298072340E-01 -8.34811968986E-02  1.79240648860E-01
 273  12   9    6 C    -8.34811968986E-02  1.79240648860E-01 -1.83298072340E-01
 274  12  10    6 C    -3.16701927660E-01 -1.37461278800E-01  9.98168754413E-02
 275  12  11    6 C    -1.37461278800E-01  9.98168754413E-02 -3.16701927660E-01
 276  12  12    6 C     2.37278154241E-01 -3.62538721200E-01  3.20759351140E-01
 277  12  13    6 C    -2.37278154241E-01 -9.98168754413E-02  8.34811968986E-02
 278  12  14    6 C     3.16701927660E-01 -3.20759351140E-01  4.16518803101E-01
 279  12  15    6 C     1.83298072340E-01 -4.00183124559E-01  3.62538721200E-01
 280  12  16    6 C    -2.62721845759E-01 -1.79240648860E-01  1.37461278800E-01
 281  12  17    6 C    -9.98168754413E-02  8.34811968986E-02 -2.37278154241E-01
 282  12  18    6 C     8.34811968986E-02 -2.37278154241E-01 -9.98168754413E-02
 283  12  19    6 C    -1.79240648860E-01  1.37461278800E-01 -2.62721845759E-01
 284  12  20    6 C     4.16518803101E-01  3.16701927660E-01 -3.20759351140E-01
 285  12  21    6 C    -3.20759351140E-01  4.16518803101E-01  3.16701927660E-01
 286  12  22    6 C     3.62538721200E-01  1.83298072340E-01 -4.00183124559E-01
 287  12  23    6 C    -4.00183124559E-01  3.62538721200E-01  1.83298072340E-01
 288  12  24    6 C     1.37461278800E-01 -2.62721845759E-01 -1.79240648860E-01

 289  13   1    1 H     4.12028255150E-01  2.45171327058E-01 -4.14795936506E-01
 290  13   2    1 H     1.59967263564E-01 -1.73175808345E-01 -8.52040634943E-02
 291  13   3    1 H     8.79717448504E-02 -3.26824191655E-01 -1.66856928092E-01
 292  13   4    1 H     3.40032736436E-01  2.54828672942E-01 -3.33143071908E-01
 293  13   5    1 H    -4.14795936506E-01  4.12028255150E-01  2.45171327058E-01
 294  13   6    1 H     2.45171327058E-01 -4.14795936506E-01  4.12028255150E-01
 295  13   7    1 H    -3.33143071908E-01  3.40032736436E-01  2.54828672942E-01
 296  13   8    1 H    -1.73175808345E-01 -8.52040634943E-02  1.59967263564E-01
 297  13   9    1 H    -8.52040634943E-02  1.59967263564E-01 -1.73175808345E-01
 298  13  10    1 H    -3.26824191655E-01 -1.66856928092E-01  8.79717448504E-02
 299  13  11    1 H    -1.66856928092E-01  8.79717448504E-02 -3.26824191655E-01
 300  13  12    1 H     2.54828672942E-01 -3.33143071908E-01  3.40032736436E-01
 301  13  13    1 H    -2.54828672942E-01 -8.79717448504E-02  8.52040634943E-02
 302  13  14    1 H     3.26824191655E-01 -3.40032736436E-01  4.14795936506E-01
 303  13  15    1 H     1.73175808345E-01 -4.12028255150E-01  3.33143071908E-01
 304  13  16    1 H    -2.45171327058E-01 -1.59967263564E-01  1.66856928092E-01
 305  13  17    1 H    -8.79717448504E-02  8.52040634943E-02 -2.54828672942E-01
 306  13  18    1 H     8.52040634943E-02 -2.54828672942E-01 -8.79717448504E-02
 307  13  19    1 H    -1.59967263564E-01  1.66856928092E-01 -2.45171327058E-01
 308  13  20    1 H     4.14795936506E-01  3.26824191655E-01 -3.40032736436E-01
 309  13  21    1 H    -3.40032736436E-01  4.14795936506E-01  3.26824191655E-01
 310  13  22    1 H     3.33143071908E-01  1.73175808345E-01 -4.12028255150E-01
 311  13  23    1 H    -4.12028255150E-01  3.33143071908E-01  1.73175808345E-01
 312  13  24    1 H     1.66856928092E-01 -2.45171327058E-01 -1.59967263564E-01

 313  14   1    6 C     3.89595313106E-01  3.53973164262E-01 -4.89755050475E-01
 314  14   2    6 C     3.43728214737E-01 -1.20649636419E-01 -1.02449495250E-02
 315  14   3    6 C     1.10404686894E-01 -3.79350363581E-01 -3.56221488444E-02
 316  14   4    6 C     1.56271785263E-01  1.46026835738E-01 -4.64377851156E-01
 317  14   5    6 C    -4.89755050475E-01  3.89595313106E-01  3.53973164262E-01
 318  14   6    6 C     3.53973164262E-01 -4.89755050475E-01  3.89595313106E-01
 319  14   7    6 C    -4.64377851156E-01  1.56271785263E-01  1.46026835738E-01
 320  14   8    6 C    -1.20649636419E-01 -1.02449495250E-02  3.43728214737E-01
 321  14   9    6 C    -1.02449495250E-02  3.43728214737E-01 -1.20649636419E-01
 322  14  10    6 C    -3.79350363581E-01 -3.56221488444E-02  1.10404686894E-01
 323  14  11    6 C    -3.56221488444E-02  1.10404686894E-01 -3.79350363581E-01
 324  14  12    6 C     1.46026835738E-01 -4.64377851156E-01  1.56271785263E-01
 325  14  13    6 C    -1.46026835738E-01 -1.10404686894E-01  1.02449495250E-02
 326  14  14    6 C     3.79350363581E-01 -1.56271785263E-01  4.89755050475E-01
 327  14  15    6 C     1.20649636419E-01 -3.89595313106E-01  4.64377851156E-01
 328  14  16    6 C    -3.53973164262E-01 -3.43728214737E-01  3.56221488444E-02
 329  14  17    6 C    -1.10404686894E-01  1.02449495250E-02 -1.46026835738E-01
 330  14  18    6 C     1.02449495250E-02 -1.46026835738E-01 -1.10404686894E-01
 331  14  19    6 C    -3.43728214737E-01  3.56221488444E-02 -3.53973164262E-01
 332  14  20    6 C     4.89755050475E-01  3.79350363581E-01 -1.56271785263E-01
 333  14  21    6 C    -1.56271785263E-01  4.89755050475E-01  3.79350363581E-01
 334  14  22    6 C     4.64377851156E-01  1.20649636419E-01 -3.89595313106E-01
 335  14  23    6 C    -3.89595313106E-01  4.64377851156E-01  1.20649636419E-01
 336  14  24    6 C     3.56221488444E-02 -3.53973164262E-01 -3.43728214737E-01

 337  15   1    5 B     3.94112540210E-01  3.21012562121E-01 -4.62629819495E-01
 338  15   2    5 B     2.83642381616E-01 -1.43257640295E-01 -3.73701805047E-02
 339  15   3    5 B     1.05887459790E-01 -3.56742359705E-01 -7.30999780895E-02
 340  15   4    5 B     2.16357618384E-01  1.78987437879E-01 -4.26900021911E-01
 341  15   5    5 B    -4.62629819495E-01  3.94112540210E-01  3.21012562121E-01
 342  15   6    5 B     3.21012562121E-01 -4.62629819495E-01  3.94112540210E-01
 343  15   7    5 B    -4.26900021911E-01  2.16357618384E-01  1.78987437879E-01
 344  15   8    5 B    -1.43257640295E-01 -3.73701805047E-02  2.83642381616E-01
 345  15   9    5 B    -3.73701805047E-02  2.83642381616E-01 -1.43257640295E-01
 346  15  10    5 B    -3.56742359705E-01 -7.30999780895E-02  1.05887459790E-01
 347  15  11    5 B    -7.30999780895E-02  1.05887459790E-01 -3.56742359705E-01
 348  15  12    5 B     1.78987437879E-01 -4.26900021911E-01  2.16357618384E-01
 349  15  13    5 B    -1.78987437879E-01 -1.05887459790E-01  3.73701805047E-02
 350  15  14    5 B     3.56742359705E-01 -2.16357618384E-01  4.62629819495E-01
 351  15  15    5 B     1.43257640295E-01 -3.94112540210E-01  4.26900021911E-01
 352  15  16    5 B    -3.21012562121E-01 -2.83642381616E-01  7.30999780895E-02
 353  15  17    5 B    -1.05887459790E-01  3.73701805047E-02 -1.78987437879E-01
 354  15  18    5 B     3.73701805047E-02 -1.78987437879E-01 -1.05887459790E-01
 355  15  19    5 B    -2.83642381616E-01  7.30999780895E-02 -3.21012562121E-01
 356  15  20    5 B     4.62629819495E-01  3.56742359705E-01 -2.16357618384E-01
 357  15  21    5 B    -2.16357618384E-01  4.62629819495E-01  3.56742359705E-01
 358  15  22    5 B     4.26900021911E-01  1.43257640295E-01 -3.94112540210E-01
 359  15  23    5 B    -3.94112540210E-01  4.26900021911E-01  1.43257640295E-01
 360  15  24    5 B     7.30999780895E-02 -3.21012562121E-01 -2.83642381616E-01

 361  16   1    7 N     4.32930010169E-01  3.74677605925E-01  4.46335030973E-01
 362  16   2    7 N     4.28342574953E-01 -1.34050208041E-02  5.36649690273E-02
 363  16   3    7 N     6.70699898314E-02 -4.86594979196E-01 -5.82524042431E-02
 364  16   4    7 N     7.16574250472E-02  1.25322394074E-01 -4.41747595757E-01
 365  16   5    7 N     4.46335030973E-01  4.32930010169E-01  3.74677605925E-01
 366  16   6    7 N     3.74677605925E-01  4.46335030973E-01  4.32930010169E-01
 367  16   7    7 N    -4.41747595757E-01  7.16574250472E-02  1.25322394074E-01
 368  16   8    7 N    -1.34050208041E-02  5.36649690273E-02  4.28342574953E-01
 369  16   9    7 N     5.36649690273E-02  4.28342574953E-01 -1.34050208041E-02
 370  16  10    7 N    -4.86594979196E-01 -5.82524042431E-02  6.70699898314E-02
 371  16  11    7 N    -5.82524042431E-02  6.70699898314E-02 -4.86594979196E-01
 372  16  12    7 N     1.25322394074E-01 -4.41747595757E-01  7.16574250472E-02
 373  16  13    7 N    -1.25322394074E-01 -6.70699898314E-02 -5.36649690273E-02
 374  16  14    7 N     4.86594979196E-01 -7.16574250472E-02 -4.46335030973E-01
 375  16  15    7 N     1.34050208041E-02 -4.32930010169E-01  4.41747595757E-01
 376  16  16    7 N    -3.74677605926E-01 -4.28342574953E-01  5.82524042431E-02
 377  16  17    7 N    -6.70699898314E-02 -5.36649690273E-02 -1.25322394074E-01
 378  16  18    7 N    -5.36649690273E-02 -1.25322394074E-01 -6.70699898314E-02
 379  16  19    7 N    -4.28342574953E-01  5.82524042431E-02 -3.74677605926E-01
 380  16  20    7 N    -4.46335030973E-01  4.86594979196E-01 -7.16574250472E-02
 381  16  21    7 N    -7.16574250472E-02 -4.46335030973E-01  4.86594979196E-01
 382  16  22    7 N     4.41747595757E-01  1.34050208041E-02 -4.32930010169E-01
 383  16  23    7 N    -4.32930010169E-01  4.41747595757E-01  1.34050208041E-02
 384  16  24    7 N     5.82524042431E-02 -3.74677605926E-01 -4.28342574953E-01

 385  17   1    6 C     4.18791765078E-01  3.67783395167E-01  4.67254217122E-01
 386  17   2    6 C     4.00529178045E-01 -4.84624520440E-02  3.27457828778E-02
 387  17   3    6 C     8.12082349218E-02 -4.51537547956E-01 -5.10083699110E-02
 388  17   4    6 C     9.94708219550E-02  1.32216604833E-01 -4.48991630089E-01
 389  17   5    6 C     4.67254217122E-01  4.18791765078E-01  3.67783395167E-01
 390  17   6    6 C     3.67783395167E-01  4.67254217122E-01  4.18791765078E-01
 391  17   7    6 C    -4.48991630089E-01  9.94708219550E-02  1.32216604833E-01
 392  17   8    6 C    -4.84624520440E-02  3.27457828778E-02  4.00529178045E-01
 393  17   9    6 C     3.27457828778E-02  4.00529178045E-01 -4.84624520440E-02
 394  17  10    6 C    -4.51537547956E-01 -5.10083699110E-02  8.12082349218E-02
 395  17  11    6 C    -5.10083699110E-02  8.12082349218E-02 -4.51537547956E-01
 396  17  12    6 C     1.32216604833E-01 -4.48991630089E-01  9.94708219550E-02
 397  17  13    6 C    -1.32216604833E-01 -8.12082349218E-02 -3.27457828778E-02
 398  17  14    6 C     4.51537547956E-01 -9.94708219550E-02 -4.67254217122E-01
 399  17  15    6 C     4.84624520440E-02 -4.18791765078E-01  4.48991630089E-01
 400  17  16    6 C    -3.67783395167E-01 -4.00529178045E-01  5.10083699110E-02
 401  17  17    6 C    -8.12082349218E-02 -3.27457828778E-02 -1.32216604833E-01
 402  17  18    6 C    -3.27457828778E-02 -1.32216604833E-01 -8.12082349218E-02
 403  17  19    6 C    -4.00529178045E-01  5.10083699110E-02 -3.67783395167E-01
 404  17  20    6 C    -4.67254217122E-01  4.51537547956E-01 -9.94708219550E-02
 405  17  21    6 C    -9.94708219550E-02 -4.67254217122E-01  4.51537547956E-01
 406  17  22    6 C     4.48991630089E-01  4.84624520440E-02 -4.18791765078E-01
 407  17  23    6 C    -4.18791765078E-01  4.48991630089E-01  4.84624520440E-02
 408  17  24    6 C     5.10083699110E-02 -3.67783395167E-01 -4.00529178045E-01

 409  18   1    8 O     3.78919687497E-01  3.42739915324E-01 -4.68057675980E-01
 410  18   2    8 O     3.10797591305E-01 -1.53022636523E-01 -3.19423240196E-02
 411  18   3    8 O     1.21080312503E-01 -3.46977363477E-01 -3.61797721728E-02
 412  18   4    8 O     1.89202408695E-01  1.57260084676E-01 -4.63820227827E-01
 413  18   5    8 O    -4.68057675980E-01  3.78919687497E-01  3.42739915324E-01
 414  18   6    8 O     3.42739915324E-01 -4.68057675980E-01  3.78919687497E-01
 415  18   7    8 O    -4.63820227827E-01  1.89202408695E-01  1.57260084676E-01
 416  18   8    8 O    -1.53022636523E-01 -3.19423240196E-02  3.10797591305E-01
 417  18   9    8 O    -3.19423240196E-02  3.10797591305E-01 -1.53022636523E-01
 418  18  10    8 O    -3.46977363477E-01 -3.61797721728E-02  1.21080312503E-01
 419  18  11    8 O    -3.61797721728E-02  1.21080312503E-01 -3.46977363477E-01
 420  18  12    8 O     1.57260084676E-01 -4.63820227827E-01  1.89202408695E-01
 421  18  13    8 O    -1.57260084676E-01 -1.21080312503E-01  3.19423240196E-02
 422  18  14    8 O     3.46977363477E-01 -1.89202408695E-01  4.68057675980E-01
 423  18  15    8 O     1.53022636523E-01 -3.78919687497E-01  4.63820227827E-01
 424  18  16    8 O    -3.42739915324E-01 -3.10797591305E-01  3.61797721728E-02
 425  18  17    8 O    -1.21080312503E-01  3.19423240196E-02 -1.57260084676E-01
 426  18  18    8 O     3.19423240196E-02 -1.57260084676E-01 -1.21080312503E-01
 427  18  19    8 O    -3.10797591305E-01  3.61797721728E-02 -3.42739915324E-01
 428  18  20    8 O     4.68057675980E-01  3.46977363477E-01 -1.89202408695E-01
 429  18  21    8 O    -1.89202408695E-01  4.68057675980E-01  3.46977363477E-01
 430  18  22    8 O     4.63820227827E-01  1.53022636523E-01 -3.78919687497E-01
 431  18  23    8 O    -3.78919687497E-01  4.63820227827E-01  1.53022636523E-01
 432  18  24    8 O     3.61797721728E-02 -3.42739915324E-01 -3.10797591305E-01

 433  19   1    6 C     3.96540338435E-01  3.82791829685E-01  4.74993489197E-01
 434  19   2    6 C     4.07798340488E-01 -7.84531507615E-02  2.50065108031E-02
 435  19   3    6 C     1.03459661565E-01 -4.21546849238E-01 -1.37485087505E-02
 436  19   4    6 C     9.22016595120E-02  1.17208170315E-01 -4.86251491250E-01
 437  19   5    6 C     4.74993489197E-01  3.96540338435E-01  3.82791829685E-01
 438  19   6    6 C     3.82791829685E-01  4.74993489197E-01  3.96540338435E-01
 439  19   7    6 C    -4.86251491250E-01  9.22016595120E-02  1.17208170315E-01
 440  19   8    6 C    -7.84531507615E-02  2.50065108031E-02  4.07798340488E-01
 441  19   9    6 C     2.50065108031E-02  4.07798340488E-01 -7.84531507615E-02
 442  19  10    6 C    -4.21546849238E-01 -1.37485087505E-02  1.03459661565E-01
 443  19  11    6 C    -1.37485087505E-02  1.03459661565E-01 -4.21546849238E-01
 444  19  12    6 C     1.17208170315E-01 -4.86251491250E-01  9.22016595120E-02
 445  19  13    6 C    -1.17208170315E-01 -1.03459661565E-01 -2.50065108031E-02
 446  19  14    6 C     4.21546849238E-01 -9.22016595120E-02 -4.74993489197E-01
 447  19  15    6 C     7.84531507615E-02 -3.96540338435E-01  4.86251491250E-01
 448  19  16    6 C    -3.82791829685E-01 -4.07798340488E-01  1.37485087505E-02
 449  19  17    6 C    -1.03459661565E-01 -2.50065108031E-02 -1.17208170315E-01
 450  19  18    6 C    -2.50065108031E-02 -1.17208170315E-01 -1.03459661565E-01
 451  19  19    6 C    -4.07798340488E-01  1.37485087505E-02 -3.82791829685E-01
 452  19  20    6 C    -4.74993489197E-01  4.21546849238E-01 -9.22016595120E-02
 453  19  21    6 C    -9.22016595120E-02 -4.74993489197E-01  4.21546849238E-01
 454  19  22    6 C     4.86251491250E-01  7.84531507615E-02 -3.96540338435E-01
 455  19  23    6 C    -3.96540338435E-01  4.86251491250E-01  7.84531507615E-02
 456  19  24    6 C     1.37485087505E-02 -3.82791829685E-01 -4.07798340488E-01

 457  20   1    7 N     3.89279833159E-01  4.03917559014E-01  4.61354293523E-01
 458  20   2    7 N     4.42563265491E-01 -7.20744603640E-02  3.86457064774E-02
 459  20   3    7 N     1.10720166841E-01 -4.27925539636E-01  1.46377258552E-02
 460  20   4    7 N     5.74367345088E-02  9.60824409862E-02  4.85362274145E-01
 461  20   5    7 N     4.61354293523E-01  3.89279833159E-01  4.03917559014E-01
 462  20   6    7 N     4.03917559014E-01  4.61354293523E-01  3.89279833159E-01
 463  20   7    7 N     4.85362274145E-01  5.74367345088E-02  9.60824409862E-02
 464  20   8    7 N    -7.20744603640E-02  3.86457064774E-02  4.42563265491E-01
 465  20   9    7 N     3.86457064774E-02  4.42563265491E-01 -7.20744603640E-02
 466  20  10    7 N    -4.27925539636E-01  1.46377258552E-02  1.10720166841E-01
 467  20  11    7 N     1.46377258552E-02  1.10720166841E-01 -4.27925539636E-01
 468  20  12    7 N     9.60824409862E-02  4.85362274145E-01  5.74367345088E-02
 469  20  13    7 N    -9.60824409862E-02 -1.10720166841E-01 -3.86457064774E-02
 470  20  14    7 N     4.27925539636E-01 -5.74367345088E-02 -4.61354293523E-01
 471  20  15    7 N     7.20744603640E-02 -3.89279833159E-01 -4.85362274145E-01
 472  20  16    7 N    -4.03917559014E-01 -4.42563265491E-01 -1.46377258552E-02
 473  20  17    7 N    -1.10720166841E-01 -3.86457064774E-02 -9.60824409862E-02
 474  20  18    7 N    -3.86457064774E-02 -9.60824409862E-02 -1.10720166841E-01
 475  20  19    7 N    -4.42563265491E-01 -1.46377258552E-02 -4.03917559014E-01
 476  20  20    7 N    -4.61354293523E-01  4.27925539636E-01 -5.74367345088E-02
 477  20  21    7 N    -5.74367345088E-02 -4.61354293523E-01  4.27925539636E-01
 478  20  22    7 N    -4.85362274145E-01  7.20744603640E-02 -3.89279833159E-01
 479  20  23    7 N    -3.89279833159E-01 -4.85362274145E-01  7.20744603640E-02
 480  20  24    7 N    -1.46377258552E-02 -4.03917559014E-01 -4.42563265491E-01

 481  21   1    8 O     4.14213142196E-01  3.18628658965E-01 -4.80582140200E-01
 482  21   2    8 O     2.99210799165E-01 -1.05204717603E-01 -1.94178597996E-02
 483  21   3    8 O     8.57868578038E-02 -3.94795282397E-01 -9.55844832314E-02
 484  21   4    8 O     2.00789200835E-01  1.81371341035E-01 -4.04415516769E-01
 485  21   5    8 O    -4.80582140200E-01  4.14213142196E-01  3.18628658965E-01
 486  21   6    8 O     3.18628658965E-01 -4.80582140200E-01  4.14213142196E-01
 487  21   7    8 O    -4.04415516769E-01  2.00789200835E-01  1.81371341035E-01
 488  21   8    8 O    -1.05204717603E-01 -1.94178597996E-02  2.99210799165E-01
 489  21   9    8 O    -1.94178597996E-02  2.99210799165E-01 -1.05204717603E-01
 490  21  10    8 O    -3.94795282397E-01 -9.55844832314E-02  8.57868578038E-02
 491  21  11    8 O    -9.55844832314E-02  8.57868578038E-02 -3.94795282397E-01
 492  21  12    8 O     1.81371341035E-01 -4.04415516769E-01  2.00789200835E-01
 493  21  13    8 O    -1.81371341035E-01 -8.57868578038E-02  1.94178597996E-02
 494  21  14    8 O     3.94795282397E-01 -2.00789200835E-01  4.80582140200E-01
 495  21  15    8 O     1.05204717603E-01 -4.14213142196E-01  4.04415516769E-01
 496  21  16    8 O    -3.18628658965E-01 -2.99210799165E-01  9.55844832314E-02
 497  21  17    8 O    -8.57868578038E-02  1.94178597996E-02 -1.81371341035E-01
 498  21  18    8 O     1.94178597996E-02 -1.81371341035E-01 -8.57868578038E-02
 499  21  19    8 O    -2.99210799165E-01  9.55844832314E-02 -3.18628658965E-01
 500  21  20    8 O     4.80582140200E-01  3.94795282397E-01 -2.00789200835E-01
 501  21  21    8 O    -2.00789200835E-01  4.80582140200E-01  3.94795282397E-01
 502  21  22    8 O     4.04415516769E-01  1.05204717603E-01 -4.14213142196E-01
 503  21  23    8 O    -4.14213142196E-01  4.04415516769E-01  1.05204717603E-01
 504  21  24    8 O     9.55844832314E-02 -3.18628658965E-01 -2.99210799165E-01

 505  22   1    6 C     4.25559902514E-01  3.95541301515E-01  4.33191589536E-01
 506  22   2    6 C     4.62349711979E-01 -7.63168702210E-03  6.68084104636E-02
 507  22   3    6 C     7.44400974857E-02 -4.92368312978E-01 -3.00186009994E-02
 508  22   4    6 C     3.76502880215E-02  1.04458698485E-01 -4.69981399001E-01
 509  22   5    6 C     4.33191589536E-01  4.25559902514E-01  3.95541301515E-01
 510  22   6    6 C     3.95541301515E-01  4.33191589536E-01  4.25559902514E-01
 511  22   7    6 C    -4.69981399001E-01  3.76502880215E-02  1.04458698485E-01
 512  22   8    6 C    -7.63168702210E-03  6.68084104636E-02  4.62349711979E-01
 513  22   9    6 C     6.68084104636E-02  4.62349711979E-01 -7.63168702210E-03
 514  22  10    6 C    -4.92368312978E-01 -3.00186009994E-02  7.44400974857E-02
 515  22  11    6 C    -3.00186009994E-02  7.44400974857E-02 -4.92368312978E-01
 516  22  12    6 C     1.04458698485E-01 -4.69981399001E-01  3.76502880215E-02
 517  22  13    6 C    -1.04458698485E-01 -7.44400974857E-02 -6.68084104636E-02
 518  22  14    6 C     4.92368312978E-01 -3.76502880215E-02 -4.33191589536E-01
 519  22  15    6 C     7.63168702210E-03 -4.25559902514E-01  4.69981399001E-01
 520  22  16    6 C    -3.95541301515E-01 -4.62349711979E-01  3.00186009994E-02
 521  22  17    6 C    -7.44400974857E-02 -6.68084104636E-02 -1.04458698485E-01
 522  22  18    6 C    -6.68084104636E-02 -1.04458698485E-01 -7.44400974857E-02
 523  22  19    6 C    -4.62349711979E-01  3.00186009994E-02 -3.95541301515E-01
 524  22  20    6 C    -4.33191589536E-01  4.92368312978E-01 -3.76502880215E-02
 525  22  21    6 C    -3.76502880215E-02 -4.33191589536E-01  4.92368312978E-01
 526  22  22    6 C     4.69981399001E-01  7.63168702210E-03 -4.25559902514E-01
 527  22  23    6 C    -4.25559902514E-01  4.69981399001E-01  7.63168702210E-03
 528  22  24    6 C     3.00186009994E-02 -3.95541301515E-01 -4.62349711979E-01

 529  23   1    6 C     4.03317314209E-01  4.10336896096E-01  4.40760971467E-01
 530  23   2    6 C     4.69575924629E-01 -3.74436572587E-02  5.92390285326E-02
 531  23   3    6 C     9.66826857913E-02 -4.62556342741E-01  7.01958188760E-03
 532  23   4    6 C     3.04240753711E-02  8.96631039037E-02  4.92980418112E-01
 533  23   5    6 C     4.40760971467E-01  4.03317314209E-01  4.10336896096E-01
 534  23   6    6 C     4.10336896096E-01  4.40760971467E-01  4.03317314209E-01
 535  23   7    6 C     4.92980418112E-01  3.04240753711E-02  8.96631039037E-02
 536  23   8    6 C    -3.74436572587E-02  5.92390285326E-02  4.69575924629E-01
 537  23   9    6 C     5.92390285326E-02  4.69575924629E-01 -3.74436572587E-02
 538  23  10    6 C    -4.62556342741E-01  7.01958188760E-03  9.66826857913E-02
 539  23  11    6 C     7.01958188760E-03  9.66826857913E-02 -4.62556342741E-01
 540  23  12    6 C     8.96631039037E-02  4.92980418112E-01  3.04240753711E-02
 541  23  13    6 C    -8.96631039037E-02 -9.66826857913E-02 -5.92390285326E-02
 542  23  14    6 C     4.62556342741E-01 -3.04240753711E-02 -4.40760971467E-01
 543  23  15    6 C     3.74436572587E-02 -4.03317314209E-01 -4.92980418112E-01
 544  23  16    6 C    -4.10336896096E-01 -4.69575924629E-01 -7.01958188760E-03
 545  23  17    6 C    -9.66826857913E-02 -5.92390285326E-02 -8.96631039037E-02
 546  23  18    6 C    -5.92390285326E-02 -8.96631039037E-02 -9.66826857913E-02
 547  23  19    6 C    -4.69575924629E-01 -7.01958188760E-03 -4.10336896096E-01
 548  23  20    6 C    -4.40760971467E-01  4.62556342741E-01 -3.04240753711E-02
 549  23  21    6 C    -3.04240753711E-02 -4.40760971467E-01  4.62556342741E-01
 550  23  22    6 C    -4.92980418112E-01  3.74436572587E-02 -4.03317314209E-01
 551  23  23    6 C    -4.03317314209E-01 -4.92980418112E-01  3.74436572587E-02
 552  23  24    6 C    -7.01958188760E-03 -4.10336896096E-01 -4.69575924629E-01

 553  24   1    1 H     3.64956040923E-01  3.87160077386E-01 -4.97233712459E-01
 554  24   2    1 H     3.84393789845E-01 -1.37810246617E-01 -2.76628754100E-03
 555  24   3    1 H     1.35043959076E-01 -3.62189753383E-01  2.22040364622E-02
 556  24   4    1 H     1.15606210155E-01  1.12839922614E-01  4.77795963538E-01
 557  24   5    1 H    -4.97233712459E-01  3.64956040923E-01  3.87160077386E-01
 558  24   6    1 H     3.87160077386E-01 -4.97233712459E-01  3.64956040923E-01
 559  24   7    1 H     4.77795963538E-01  1.15606210155E-01  1.12839922614E-01
 560  24   8    1 H    -1.37810246617E-01 -2.76628754100E-03  3.84393789845E-01
 561  24   9    1 H    -2.76628754100E-03  3.84393789845E-01 -1.37810246617E-01
 562  24  10    1 H    -3.62189753383E-01  2.22040364622E-02  1.35043959076E-01
 563  24  11    1 H     2.22040364622E-02  1.35043959076E-01 -3.62189753383E-01
 564  24  12    1 H     1.12839922614E-01  4.77795963538E-01  1.15606210155E-01
 565  24  13    1 H    -1.12839922614E-01 -1.35043959077E-01  2.76628754100E-03
 566  24  14    1 H     3.62189753383E-01 -1.15606210155E-01  4.97233712459E-01
 567  24  15    1 H     1.37810246617E-01 -3.64956040923E-01 -4.77795963538E-01
 568  24  16    1 H    -3.87160077386E-01 -3.84393789845E-01 -2.22040364622E-02
 569  24  17    1 H    -1.35043959077E-01  2.76628754100E-03 -1.12839922614E-01
 570  24  18    1 H     2.76628754100E-03 -1.12839922614E-01 -1.35043959077E-01
 571  24  19    1 H    -3.84393789845E-01 -2.22040364622E-02 -3.87160077386E-01
 572  24  20    1 H     4.97233712459E-01  3.62189753383E-01 -1.15606210155E-01
 573  24  21    1 H    -1.15606210155E-01  4.97233712459E-01  3.62189753383E-01
 574  24  22    1 H    -4.77795963538E-01  1.37810246617E-01 -3.64956040923E-01
 575  24  23    1 H    -3.64956040923E-01 -4.77795963538E-01  1.37810246617E-01
 576  24  24    1 H    -2.22040364622E-02 -3.87160077386E-01 -3.84393789845E-01

 577  25   1    1 H     4.43122403252E-01  3.34158306174E-01  4.75348263432E-01
 578  25   2    1 H     3.58810042742E-01 -3.22258601804E-02  2.46517365679E-02
 579  25   3    1 H     5.68775967483E-02 -4.67774139820E-01 -1.08964097077E-01
 580  25   4    1 H     1.41189957258E-01  1.65841693826E-01 -3.91035902923E-01
 581  25   5    1 H     4.75348263432E-01  4.43122403252E-01  3.34158306174E-01
 582  25   6    1 H     3.34158306174E-01  4.75348263432E-01  4.43122403252E-01
 583  25   7    1 H    -3.91035902923E-01  1.41189957258E-01  1.65841693826E-01
 584  25   8    1 H    -3.22258601804E-02  2.46517365679E-02  3.58810042742E-01
 585  25   9    1 H     2.46517365679E-02  3.58810042742E-01 -3.22258601804E-02
 586  25  10    1 H    -4.67774139820E-01 -1.08964097077E-01  5.68775967483E-02
 587  25  11    1 H    -1.08964097077E-01  5.68775967483E-02 -4.67774139820E-01
 588  25  12    1 H     1.65841693826E-01 -3.91035902923E-01  1.41189957258E-01
 589  25  13    1 H    -1.65841693826E-01 -5.68775967483E-02 -2.46517365679E-02
 590  25  14    1 H     4.67774139820E-01 -1.41189957258E-01 -4.75348263432E-01
 591  25  15    1 H     3.22258601804E-02 -4.43122403252E-01  3.91035902923E-01
 592  25  16    1 H    -3.34158306174E-01 -3.58810042742E-01  1.08964097077E-01
 593  25  17    1 H    -5.68775967483E-02 -2.46517365679E-02 -1.65841693826E-01
 594  25  18    1 H    -2.46517365679E-02 -1.65841693826E-01 -5.68775967483E-02
 595  25  19    1 H    -3.58810042742E-01  1.08964097077E-01 -3.34158306174E-01
 596  25  20    1 H    -4.75348263432E-01  4.67774139820E-01 -1.41189957258E-01
 597  25  21    1 H    -1.41189957258E-01 -4.75348263432E-01  4.67774139820E-01
 598  25  22    1 H     3.91035902923E-01  3.22258601804E-02 -4.43122403252E-01
 599  25  23    1 H    -4.43122403252E-01  3.91035902923E-01  3.22258601804E-02
 600  25  24    1 H     1.08964097077E-01 -3.34158306174E-01 -3.58810042742E-01

 601  26   1    6 C    -2.50000000000E-01 -1.25000000000E-01  1.25000000000E-01
 602  26   2    6 C     2.50000000000E-01 -3.75000000000E-01  3.75000000000E-01
 603  26   3    6 C     1.25000000000E-01 -2.50000000000E-01 -1.25000000000E-01
 604  26   4    6 C    -1.25000000000E-01  1.25000000000E-01 -2.50000000000E-01
 605  26   5    6 C     3.75000000000E-01  2.50000000000E-01 -3.75000000000E-01
 606  26   6    6 C    -3.75000000000E-01  3.75000000000E-01  2.50000000000E-01

 NUMBER OF SYMMETRY OPERATORS         :   24
 *******************************************************************************
 * GEOMETRY EDITING - INPUT COORDINATES ARE GIVEN IN ANGSTROM         
 *******************************************************************************

 GEOMETRY NOW FULLY CONSISTENT WITH THE GROUP

 GCALCO - MAX INDICES DIRECT LATTICE VECTOR    14    14    14
 NO.OF VECTORS CREATED 6999 STARS  122 RMAX   917.18320 BOHR

 GEOMETRY FOR WAVE FUNCTION - DIMENSIONALITY OF THE SYSTEM    3
 (NON PERIODIC DIRECTION: LATTICE PARAMETER FORMALLY SET TO 500)
 *******************************************************************************
 LATTICE PARAMETERS (ANGSTROMS AND DEGREES) - BOHR = 0.5291772083 ANGSTROM
 PRIMITIVE CELL - CENTRING CODE 6/0 VOLUME= 68085.818865 - DENSITY  0.145 g/cm^3
         A              B              C           ALPHA      BETA       GAMMA 
    44.55463108    44.55463108    44.55463108   109.471221 109.471221 109.471221
 *******************************************************************************
 ATOMS IN THE ASYMMETRIC UNIT   26 - ATOMS IN THE UNIT CELL:  606
     ATOM                 X/A                 Y/B                 Z/C    
 *******************************************************************************
      1 T   6 C     4.114690608052E-01  3.390706900667E-01 -4.974824973141E-01
      2 F   6 C     3.365531873808E-01 -9.104844188070E-02 -2.517502685900E-03
      3 F   6 C     8.853093919480E-02 -4.089515581193E-01 -7.239837073850E-02
      4 F   6 C     1.634468126192E-01  1.609293099333E-01 -4.276016292615E-01
      5 F   6 C    -4.974824973141E-01  4.114690608052E-01  3.390706900667E-01
      6 F   6 C     3.390706900667E-01 -4.974824973141E-01  4.114690608052E-01
      7 F   6 C    -4.276016292615E-01  1.634468126192E-01  1.609293099333E-01
      8 F   6 C    -9.104844188070E-02 -2.517502685900E-03  3.365531873808E-01
      9 F   6 C    -2.517502685900E-03  3.365531873808E-01 -9.104844188070E-02
     10 F   6 C    -4.089515581193E-01 -7.239837073850E-02  8.853093919480E-02
     11 F   6 C    -7.239837073850E-02  8.853093919480E-02 -4.089515581193E-01
     12 F   6 C     1.609293099333E-01 -4.276016292615E-01  1.634468126192E-01
     13 F   6 C    -1.609293099333E-01 -8.853093919480E-02  2.517502685900E-03
     14 F   6 C     4.089515581193E-01 -1.634468126192E-01  4.974824973141E-01
     15 F   6 C     9.104844188070E-02 -4.114690608052E-01  4.276016292615E-01
     16 F   6 C    -3.390706900667E-01 -3.365531873808E-01  7.239837073850E-02
     17 F   6 C    -8.853093919480E-02  2.517502685900E-03 -1.609293099333E-01
     18 F   6 C     2.517502685900E-03 -1.609293099333E-01 -8.853093919480E-02
     19 F   6 C    -3.365531873808E-01  7.239837073850E-02 -3.390706900667E-01
     20 F   6 C     4.974824973141E-01  4.089515581193E-01 -1.634468126192E-01
     21 F   6 C    -1.634468126192E-01  4.974824973141E-01  4.089515581193E-01
     22 F   6 C     4.276016292615E-01  9.104844188070E-02 -4.114690608052E-01
     23 F   6 C    -4.114690608052E-01  4.276016292615E-01  9.104844188070E-02
     24 F   6 C     7.239837073850E-02 -3.390706900667E-01 -3.365531873808E-01
     25 T   6 C     3.816992017323E-01  3.755804833725E-01  4.971594556658E-01
     26 F   6 C     3.784210277067E-01 -1.154602539335E-01  2.840544334200E-03
     27 F   6 C     1.183007982677E-01 -3.845397460665E-01 -6.118718359800E-03
     28 F   6 C     1.215789722933E-01  1.244195166275E-01 -4.938812816402E-01
     29 F   6 C     4.971594556658E-01  3.816992017323E-01  3.755804833725E-01
     30 F   6 C     3.755804833725E-01  4.971594556658E-01  3.816992017323E-01
     31 F   6 C    -4.938812816402E-01  1.215789722933E-01  1.244195166275E-01
     32 F   6 C    -1.154602539335E-01  2.840544334200E-03  3.784210277067E-01
     33 F   6 C     2.840544334200E-03  3.784210277067E-01 -1.154602539335E-01
     34 F   6 C    -3.845397460665E-01 -6.118718359800E-03  1.183007982677E-01
     35 F   6 C    -6.118718359800E-03  1.183007982677E-01 -3.845397460665E-01
     36 F   6 C     1.244195166275E-01 -4.938812816402E-01  1.215789722933E-01
     37 F   6 C    -1.244195166275E-01 -1.183007982677E-01 -2.840544334200E-03
     38 F   6 C     3.845397460665E-01 -1.215789722933E-01 -4.971594556658E-01
     39 F   6 C     1.154602539335E-01 -3.816992017323E-01  4.938812816402E-01
     40 F   6 C    -3.755804833725E-01 -3.784210277067E-01  6.118718359800E-03
     41 F   6 C    -1.183007982677E-01 -2.840544334200E-03 -1.244195166275E-01
     42 F   6 C    -2.840544334200E-03 -1.244195166275E-01 -1.183007982677E-01
     43 F   6 C    -3.784210277067E-01  6.118718359800E-03 -3.755804833725E-01
     44 F   6 C    -4.971594556658E-01  3.845397460665E-01 -1.215789722933E-01
     45 F   6 C    -1.215789722933E-01 -4.971594556658E-01  3.845397460665E-01
     46 F   6 C     4.938812816402E-01  1.154602539335E-01 -3.816992017323E-01
     47 F   6 C    -3.816992017323E-01  4.938812816402E-01  1.154602539335E-01
     48 F   6 C     6.118718359800E-03 -3.755804833725E-01 -3.784210277067E-01
     49 T   1 H     3.562099011887E-01  3.232697591509E-01 -4.251403019362E-01
     50 F   1 H     2.484100610871E-01 -2.186497968751E-01 -7.485969806380E-02
     51 F   1 H     1.437900988113E-01 -2.813502031249E-01 -3.294014203780E-02
     52 F   1 H     2.515899389129E-01  1.767302408491E-01 -4.670598579622E-01
     53 F   1 H    -4.251403019362E-01  3.562099011887E-01  3.232697591509E-01
     54 F   1 H     3.232697591509E-01 -4.251403019362E-01  3.562099011887E-01
     55 F   1 H    -4.670598579622E-01  2.515899389129E-01  1.767302408491E-01
     56 F   1 H    -2.186497968751E-01 -7.485969806380E-02  2.484100610871E-01
     57 F   1 H    -7.485969806380E-02  2.484100610871E-01 -2.186497968751E-01
     58 F   1 H    -2.813502031249E-01 -3.294014203780E-02  1.437900988113E-01
     59 F   1 H    -3.294014203780E-02  1.437900988113E-01 -2.813502031249E-01
     60 F   1 H     1.767302408491E-01 -4.670598579622E-01  2.515899389129E-01
     61 F   1 H    -1.767302408491E-01 -1.437900988113E-01  7.485969806380E-02
     62 F   1 H     2.813502031249E-01 -2.515899389129E-01  4.251403019362E-01
     63 F   1 H     2.186497968751E-01 -3.562099011887E-01  4.670598579622E-01
     64 F   1 H    -3.232697591509E-01 -2.484100610871E-01  3.294014203780E-02
     65 F   1 H    -1.437900988113E-01  7.485969806380E-02 -1.767302408491E-01
     66 F   1 H     7.485969806380E-02 -1.767302408491E-01 -1.437900988113E-01
     67 F   1 H    -2.484100610871E-01  3.294014203780E-02 -3.232697591509E-01
     68 F   1 H     4.251403019362E-01  2.813502031249E-01 -2.515899389129E-01
     69 F   1 H    -2.515899389129E-01  4.251403019362E-01  2.813502031249E-01
     70 F   1 H     4.670598579622E-01  2.186497968751E-01 -3.562099011887E-01
     71 F   1 H    -3.562099011887E-01  4.670598579622E-01  2.186497968751E-01
     72 F   1 H     3.294014203780E-02 -3.232697591509E-01 -2.484100610871E-01
     73 T   6 C     4.262954766481E-01  3.453287464775E-01  4.815083077020E-01
     74 F   6 C     3.638204387755E-01 -5.521283105390E-02  1.849169229800E-02
     75 F   6 C     7.370452335190E-02 -4.447871689461E-01 -8.096673017060E-02
     76 F   6 C     1.361795612245E-01  1.546712535225E-01 -4.190332698294E-01
     77 F   6 C     4.815083077020E-01  4.262954766481E-01  3.453287464775E-01
     78 F   6 C     3.453287464775E-01  4.815083077020E-01  4.262954766481E-01
     79 F   6 C    -4.190332698294E-01  1.361795612245E-01  1.546712535225E-01
     80 F   6 C    -5.521283105390E-02  1.849169229800E-02  3.638204387755E-01
     81 F   6 C     1.849169229800E-02  3.638204387755E-01 -5.521283105390E-02
     82 F   6 C    -4.447871689461E-01 -8.096673017060E-02  7.370452335190E-02
     83 F   6 C    -8.096673017060E-02  7.370452335190E-02 -4.447871689461E-01
     84 F   6 C     1.546712535225E-01 -4.190332698294E-01  1.361795612245E-01
     85 F   6 C    -1.546712535225E-01 -7.370452335190E-02 -1.849169229800E-02
     86 F   6 C     4.447871689461E-01 -1.361795612245E-01 -4.815083077020E-01
     87 F   6 C     5.521283105390E-02 -4.262954766481E-01  4.190332698294E-01
     88 F   6 C    -3.453287464775E-01 -3.638204387755E-01  8.096673017060E-02
     89 F   6 C    -7.370452335190E-02 -1.849169229800E-02 -1.546712535225E-01
     90 F   6 C    -1.849169229800E-02 -1.546712535225E-01 -7.370452335190E-02
     91 F   6 C    -3.638204387755E-01  8.096673017060E-02 -3.453287464775E-01
     92 F   6 C    -4.815083077020E-01  4.447871689461E-01 -1.361795612245E-01
     93 F   6 C    -1.361795612245E-01 -4.815083077020E-01  4.447871689461E-01
     94 F   6 C     4.190332698294E-01  5.521283105390E-02 -4.262954766481E-01
     95 F   6 C    -4.262954766481E-01  4.190332698294E-01  5.521283105390E-02
     96 F   6 C     8.096673017060E-02 -3.453287464775E-01 -3.638204387755E-01
     97 T   1 H     3.471865118096E-01  2.914096794815E-01 -3.899856060783E-01
     98 F   1 H     1.813952855598E-01 -2.628278821121E-01 -1.100143939217E-01
     99 F   1 H     1.528134881904E-01 -2.371721178879E-01 -5.577683232810E-02
    100 F   1 H     3.186047144402E-01  2.085903205185E-01 -4.442231676719E-01
    101 F   1 H    -3.899856060783E-01  3.471865118096E-01  2.914096794815E-01
    102 F   1 H     2.914096794815E-01 -3.899856060783E-01  3.471865118096E-01
    103 F   1 H    -4.442231676719E-01  3.186047144402E-01  2.085903205185E-01
    104 F   1 H    -2.628278821121E-01 -1.100143939217E-01  1.813952855598E-01
    105 F   1 H    -1.100143939217E-01  1.813952855598E-01 -2.628278821121E-01
    106 F   1 H    -2.371721178879E-01 -5.577683232810E-02  1.528134881904E-01
    107 F   1 H    -5.577683232810E-02  1.528134881904E-01 -2.371721178879E-01
    108 F   1 H     2.085903205185E-01 -4.442231676719E-01  3.186047144402E-01
    109 F   1 H    -2.085903205185E-01 -1.528134881904E-01  1.100143939217E-01
    110 F   1 H     2.371721178879E-01 -3.186047144402E-01  3.899856060783E-01
    111 F   1 H     2.628278821121E-01 -3.471865118096E-01  4.442231676719E-01
    112 F   1 H    -2.914096794815E-01 -1.813952855598E-01  5.577683232810E-02
    113 F   1 H    -1.528134881904E-01  1.100143939217E-01 -2.085903205185E-01
    114 F   1 H     1.100143939217E-01 -2.085903205185E-01 -1.528134881904E-01
    115 F   1 H    -1.813952855598E-01  5.577683232810E-02 -2.914096794815E-01
    116 F   1 H     3.899856060783E-01  2.371721178879E-01 -3.186047144402E-01
    117 F   1 H    -3.186047144402E-01  3.899856060783E-01  2.371721178879E-01
    118 F   1 H     4.442231676719E-01  2.628278821121E-01 -3.471865118096E-01
    119 F   1 H    -3.471865118096E-01  4.442231676719E-01  2.628278821121E-01
    120 F   1 H     5.577683232810E-02 -2.914096794815E-01 -1.813952855598E-01
    121 T   1 H     4.199479459531E-01  2.758188772968E-01 -4.509469084235E-01
    122 F   1 H     2.267657857203E-01 -1.291051456234E-01 -4.905309157650E-02
    123 F   1 H     8.005205404694E-02 -3.708948543766E-01 -1.441290686563E-01
    124 F   1 H     2.732342142797E-01  2.241811227032E-01 -3.558709313437E-01
    125 F   1 H    -4.509469084235E-01  4.199479459531E-01  2.758188772968E-01
    126 F   1 H     2.758188772968E-01 -4.509469084235E-01  4.199479459531E-01
    127 F   1 H    -3.558709313437E-01  2.732342142797E-01  2.241811227032E-01
    128 F   1 H    -1.291051456234E-01 -4.905309157650E-02  2.267657857203E-01
    129 F   1 H    -4.905309157650E-02  2.267657857203E-01 -1.291051456234E-01
    130 F   1 H    -3.708948543766E-01 -1.441290686563E-01  8.005205404694E-02
    131 F   1 H    -1.441290686563E-01  8.005205404694E-02 -3.708948543766E-01
    132 F   1 H     2.241811227032E-01 -3.558709313437E-01  2.732342142797E-01
    133 F   1 H    -2.241811227032E-01 -8.005205404694E-02  4.905309157650E-02
    134 F   1 H     3.708948543766E-01 -2.732342142797E-01  4.509469084235E-01
    135 F   1 H     1.291051456234E-01 -4.199479459531E-01  3.558709313437E-01
    136 F   1 H    -2.758188772968E-01 -2.267657857203E-01  1.441290686563E-01
    137 F   1 H    -8.005205404694E-02  4.905309157650E-02 -2.241811227032E-01
    138 F   1 H     4.905309157650E-02 -2.241811227032E-01 -8.005205404694E-02
    139 F   1 H    -2.267657857203E-01  1.441290686563E-01 -2.758188772968E-01
    140 F   1 H     4.509469084235E-01  3.708948543766E-01 -2.732342142797E-01
    141 F   1 H    -2.732342142797E-01  4.509469084235E-01  3.708948543766E-01
    142 F   1 H     3.558709313437E-01  1.291051456234E-01 -4.199479459531E-01
    143 F   1 H    -4.199479459531E-01  3.558709313437E-01  1.291051456234E-01
    144 F   1 H     1.441290686563E-01 -2.758188772968E-01 -2.267657857203E-01
    145 T   6 C     4.045050823746E-01  2.799046198178E-01 -4.369817173172E-01
    146 F   6 C     2.168863371350E-01 -1.585132003083E-01 -6.301828268280E-02
    147 F   6 C     9.549491762545E-02 -3.414867996918E-01 -1.246004625568E-01
    148 F   6 C     2.831136628650E-01  2.200953801823E-01 -3.753995374432E-01
    149 F   6 C    -4.369817173172E-01  4.045050823745E-01  2.799046198177E-01
    150 F   6 C     2.799046198178E-01 -4.369817173172E-01  4.045050823746E-01
    151 F   6 C    -3.753995374432E-01  2.831136628650E-01  2.200953801823E-01
    152 F   6 C    -1.585132003083E-01 -6.301828268280E-02  2.168863371350E-01
    153 F   6 C    -6.301828268280E-02  2.168863371350E-01 -1.585132003083E-01
    154 F   6 C    -3.414867996918E-01 -1.246004625568E-01  9.549491762545E-02
    155 F   6 C    -1.246004625568E-01  9.549491762545E-02 -3.414867996918E-01
    156 F   6 C     2.200953801823E-01 -3.753995374432E-01  2.831136628651E-01
    157 F   6 C    -2.200953801823E-01 -9.549491762545E-02  6.301828268280E-02
    158 F   6 C     3.414867996918E-01 -2.831136628650E-01  4.369817173172E-01
    159 F   6 C     1.585132003082E-01 -4.045050823745E-01  3.753995374432E-01
    160 F   6 C    -2.799046198178E-01 -2.168863371350E-01  1.246004625568E-01
    161 F   6 C    -9.549491762545E-02  6.301828268280E-02 -2.200953801823E-01
    162 F   6 C     6.301828268280E-02 -2.200953801823E-01 -9.549491762545E-02
    163 F   6 C    -2.168863371350E-01  1.246004625568E-01 -2.799046198178E-01
    164 F   6 C     4.369817173172E-01  3.414867996917E-01 -2.831136628650E-01
    165 F   6 C    -2.831136628650E-01  4.369817173172E-01  3.414867996918E-01
    166 F   6 C     3.753995374432E-01  1.585132003082E-01 -4.045050823745E-01
    167 F   6 C    -4.045050823745E-01  3.753995374432E-01  1.585132003082E-01
    168 F   6 C     1.246004625568E-01 -2.799046198178E-01 -2.168863371350E-01
    169 T   6 C     3.688570611769E-01  3.064682846535E-01 -4.225301094894E-01
    170 F   6 C     2.289983941429E-01 -2.086128293337E-01 -7.746989051060E-02
    171 F   6 C     1.311429388231E-01 -2.913871706663E-01 -6.238877652340E-02
    172 F   6 C     2.710016058571E-01  1.935317153465E-01 -4.376112234766E-01
    173 F   6 C    -4.225301094894E-01  3.688570611769E-01  3.064682846535E-01
    174 F   6 C     3.064682846535E-01 -4.225301094894E-01  3.688570611769E-01
    175 F   6 C    -4.376112234766E-01  2.710016058571E-01  1.935317153465E-01
    176 F   6 C    -2.086128293337E-01 -7.746989051060E-02  2.289983941429E-01
    177 F   6 C    -7.746989051060E-02  2.289983941429E-01 -2.086128293337E-01
    178 F   6 C    -2.913871706663E-01 -6.238877652340E-02  1.311429388231E-01
    179 F   6 C    -6.238877652340E-02  1.311429388231E-01 -2.913871706663E-01
    180 F   6 C     1.935317153465E-01 -4.376112234766E-01  2.710016058571E-01
    181 F   6 C    -1.935317153465E-01 -1.311429388231E-01  7.746989051060E-02
    182 F   6 C     2.913871706663E-01 -2.710016058571E-01  4.225301094894E-01
    183 F   6 C     2.086128293337E-01 -3.688570611769E-01  4.376112234766E-01
    184 F   6 C    -3.064682846535E-01 -2.289983941429E-01  6.238877652340E-02
    185 F   6 C    -1.311429388231E-01  7.746989051060E-02 -1.935317153465E-01
    186 F   6 C     7.746989051060E-02 -1.935317153465E-01 -1.311429388231E-01
    187 F   6 C    -2.289983941429E-01  6.238877652340E-02 -3.064682846535E-01
    188 F   6 C     4.225301094894E-01  2.913871706663E-01 -2.710016058571E-01
    189 F   6 C    -2.710016058571E-01  4.225301094894E-01  2.913871706663E-01
    190 F   6 C     4.376112234766E-01  2.086128293337E-01 -3.688570611769E-01
    191 F   6 C    -3.688570611769E-01  4.376112234766E-01  2.086128293337E-01
    192 F   6 C     6.238877652340E-02 -3.064682846535E-01 -2.289983941429E-01
    193 T   6 C     3.892640794892E-01  3.022570105394E-01 -4.401258468692E-01
    194 F   6 C     2.423828574086E-01 -1.706100736416E-01 -5.987415313080E-02
    195 F   6 C     1.107359205108E-01 -3.293899263584E-01 -8.700706894980E-02
    196 F   6 C     2.576171425914E-01  1.977429894606E-01 -4.129929310502E-01
    197 F   6 C    -4.401258468692E-01  3.892640794892E-01  3.022570105394E-01
    198 F   6 C     3.022570105394E-01 -4.401258468692E-01  3.892640794892E-01
    199 F   6 C    -4.129929310502E-01  2.576171425914E-01  1.977429894606E-01
    200 F   6 C    -1.706100736416E-01 -5.987415313080E-02  2.423828574086E-01
    201 F   6 C    -5.987415313080E-02  2.423828574086E-01 -1.706100736416E-01
    202 F   6 C    -3.293899263584E-01 -8.700706894980E-02  1.107359205108E-01
    203 F   6 C    -8.700706894980E-02  1.107359205108E-01 -3.293899263584E-01
    204 F   6 C     1.977429894606E-01 -4.129929310502E-01  2.576171425914E-01
    205 F   6 C    -1.977429894606E-01 -1.107359205108E-01  5.987415313080E-02
    206 F   6 C     3.293899263584E-01 -2.576171425914E-01  4.401258468692E-01
    207 F   6 C     1.706100736416E-01 -3.892640794892E-01  4.129929310502E-01
    208 F   6 C    -3.022570105394E-01 -2.423828574086E-01  8.700706894980E-02
    209 F   6 C    -1.107359205108E-01  5.987415313080E-02 -1.977429894606E-01
    210 F   6 C     5.987415313080E-02 -1.977429894606E-01 -1.107359205108E-01
    211 F   6 C    -2.423828574086E-01  8.700706894980E-02 -3.022570105394E-01
    212 F   6 C     4.401258468692E-01  3.293899263584E-01 -2.576171425914E-01
    213 F   6 C    -2.576171425914E-01  4.401258468692E-01  3.293899263584E-01
    214 F   6 C     4.129929310502E-01  1.706100736416E-01 -3.892640794892E-01
    215 F   6 C    -3.892640794892E-01  4.129929310502E-01  1.706100736416E-01
    216 F   6 C     8.700706894980E-02 -3.022570105394E-01 -2.423828574086E-01
    217 T   6 C     3.641715626344E-01  2.890684345631E-01 -4.024837504671E-01
    218 F   6 C     1.915521850302E-01 -2.333446868985E-01 -9.751624953290E-02
    219 F   6 C     1.358284373656E-01 -2.666553131015E-01 -7.510312807130E-02
    220 F   6 C     3.084478149698E-01  2.109315654369E-01 -4.248968719287E-01
    221 F   6 C    -4.024837504671E-01  3.641715626344E-01  2.890684345631E-01
    222 F   6 C     2.890684345631E-01 -4.024837504671E-01  3.641715626344E-01
    223 F   6 C    -4.248968719287E-01  3.084478149698E-01  2.109315654369E-01
    224 F   6 C    -2.333446868985E-01 -9.751624953290E-02  1.915521850302E-01
    225 F   6 C    -9.751624953290E-02  1.915521850302E-01 -2.333446868985E-01
    226 F   6 C    -2.666553131015E-01 -7.510312807130E-02  1.358284373656E-01
    227 F   6 C    -7.510312807130E-02  1.358284373656E-01 -2.666553131015E-01
    228 F   6 C     2.109315654369E-01 -4.248968719287E-01  3.084478149698E-01
    229 F   6 C    -2.109315654369E-01 -1.358284373656E-01  9.751624953290E-02
    230 F   6 C     2.666553131015E-01 -3.084478149698E-01  4.024837504671E-01
    231 F   6 C     2.333446868985E-01 -3.641715626344E-01  4.248968719287E-01
    232 F   6 C    -2.890684345631E-01 -1.915521850302E-01  7.510312807130E-02
    233 F   6 C    -1.358284373656E-01  9.751624953290E-02 -2.109315654369E-01
    234 F   6 C     9.751624953290E-02 -2.109315654369E-01 -1.358284373656E-01
    235 F   6 C    -1.915521850302E-01  7.510312807130E-02 -2.890684345631E-01
    236 F   6 C     4.024837504671E-01  2.666553131015E-01 -3.084478149698E-01
    237 F   6 C    -3.084478149698E-01  4.024837504671E-01  2.666553131015E-01
    238 F   6 C     4.248968719287E-01  2.333446868985E-01 -3.641715626344E-01
    239 F   6 C    -3.641715626344E-01  4.248968719287E-01  2.333446868985E-01
    240 F   6 C     7.510312807130E-02 -2.890684345631E-01 -1.915521850302E-01
    241 T   6 C     3.803852970830E-01  2.674571823674E-01 -3.985537887864E-01
    242 F   6 C     1.660109711538E-01 -2.210609141306E-01 -1.014462112136E-01
    243 F   6 C     1.196147029170E-01 -2.789390858694E-01 -1.129281147156E-01
    244 F   6 C     3.339890288462E-01  2.325428176326E-01 -3.870718852844E-01
    245 F   6 C    -3.985537887864E-01  3.803852970830E-01  2.674571823674E-01
    246 F   6 C     2.674571823674E-01 -3.985537887864E-01  3.803852970830E-01
    247 F   6 C    -3.870718852844E-01  3.339890288462E-01  2.325428176326E-01
    248 F   6 C    -2.210609141306E-01 -1.014462112136E-01  1.660109711538E-01
    249 F   6 C    -1.014462112136E-01  1.660109711538E-01 -2.210609141306E-01
    250 F   6 C    -2.789390858694E-01 -1.129281147156E-01  1.196147029170E-01
    251 F   6 C    -1.129281147156E-01  1.196147029170E-01 -2.789390858694E-01
    252 F   6 C     2.325428176326E-01 -3.870718852844E-01  3.339890288462E-01
    253 F   6 C    -2.325428176326E-01 -1.196147029170E-01  1.014462112136E-01
    254 F   6 C     2.789390858694E-01 -3.339890288462E-01  3.985537887864E-01
    255 F   6 C     2.210609141306E-01 -3.803852970830E-01  3.870718852844E-01
    256 F   6 C    -2.674571823674E-01 -1.660109711538E-01  1.129281147156E-01
    257 F   6 C    -1.196147029170E-01  1.014462112136E-01 -2.325428176326E-01
    258 F   6 C     1.014462112136E-01 -2.325428176326E-01 -1.196147029170E-01
    259 F   6 C    -1.660109711538E-01  1.129281147156E-01 -2.674571823674E-01
    260 F   6 C     3.985537887864E-01  2.789390858694E-01 -3.339890288462E-01
    261 F   6 C    -3.339890288462E-01  3.985537887864E-01  2.789390858694E-01
    262 F   6 C     3.870718852844E-01  2.210609141306E-01 -3.803852970830E-01
    263 F   6 C    -3.803852970830E-01  3.870718852844E-01  2.210609141306E-01
    264 F   6 C     1.129281147156E-01 -2.674571823674E-01 -1.660109711538E-01
    265 T   6 C     4.001831245588E-01  2.627218457586E-01 -4.165188031014E-01
    266 F   6 C     1.792406488600E-01 -1.832980723399E-01 -8.348119689860E-02
    267 F   6 C     9.981687544125E-02 -3.167019276602E-01 -1.374612788002E-01
    268 F   6 C     3.207593511401E-01  2.372781542415E-01 -3.625387211998E-01
    269 F   6 C    -4.165188031014E-01  4.001831245587E-01  2.627218457586E-01
    270 F   6 C     2.627218457586E-01 -4.165188031014E-01  4.001831245587E-01
    271 F   6 C    -3.625387211998E-01  3.207593511401E-01  2.372781542415E-01
    272 F   6 C    -1.832980723399E-01 -8.348119689860E-02  1.792406488599E-01
    273 F   6 C    -8.348119689860E-02  1.792406488600E-01 -1.832980723399E-01
    274 F   6 C    -3.167019276602E-01 -1.374612788002E-01  9.981687544125E-02
    275 F   6 C    -1.374612788002E-01  9.981687544125E-02 -3.167019276602E-01
    276 F   6 C     2.372781542415E-01 -3.625387211998E-01  3.207593511401E-01
    277 F   6 C    -2.372781542415E-01 -9.981687544125E-02  8.348119689860E-02
    278 F   6 C     3.167019276602E-01 -3.207593511400E-01  4.165188031014E-01
    279 F   6 C     1.832980723399E-01 -4.001831245587E-01  3.625387211998E-01
    280 F   6 C    -2.627218457586E-01 -1.792406488600E-01  1.374612788002E-01
    281 F   6 C    -9.981687544125E-02  8.348119689860E-02 -2.372781542415E-01
    282 F   6 C     8.348119689860E-02 -2.372781542415E-01 -9.981687544125E-02
    283 F   6 C    -1.792406488600E-01  1.374612788002E-01 -2.627218457586E-01
[...]
 484 O    8  0.000 -0.000 -0.000  0.000 -0.000  0.000  0.000
 485 O    8  0.000 -0.000 -0.000  0.000 -0.000  0.000  0.000
 486 O    8  0.000 -0.000 -0.000  0.000 -0.000  0.000  0.000
 487 O    8  0.000 -0.000 -0.000  0.000 -0.000  0.000  0.000
 488 O    8  0.000 -0.000 -0.000  0.000 -0.000  0.000  0.000
 489 O    8  0.000 -0.000 -0.000  0.000 -0.000  0.000  0.000
 490 O    8  0.000 -0.000 -0.000  0.000 -0.000  0.000  0.000
 491 O    8  0.000 -0.000 -0.000  0.000 -0.000  0.000  0.000
 492 O    8  0.000 -0.000 -0.000  0.000 -0.000  0.000  0.000
 493 O    8  0.000 -0.000 -0.000  0.000 -0.000  0.000  0.000
 494 O    8  0.000 -0.000 -0.000  0.000 -0.000  0.000  0.000
 495 O    8  0.000 -0.000 -0.000  0.000 -0.000  0.000  0.000
 496 O    8  0.000 -0.000 -0.000  0.000 -0.000  0.000  0.000
 497 O    8  0.000 -0.000 -0.000  0.000 -0.000  0.000  0.000
 498 O    8  0.000 -0.000 -0.000  0.000 -0.000  0.000  0.000
 499 O    8  0.000 -0.000 -0.000  0.000 -0.000  0.000  0.000
 500 O    8  0.000 -0.000 -0.000  0.000 -0.000  0.000  0.000
 501 O    8  0.000 -0.000 -0.000  0.000 -0.000  0.000  0.000
 502 O    8  0.000 -0.000 -0.000  0.000 -0.000  0.000  0.000
 503 O    8  0.000 -0.000 -0.000  0.000 -0.000  0.000  0.000
 504 O    8  0.000 -0.000 -0.000  0.000 -0.000  0.000  0.000
 505 C    6  0.000 -0.000  0.000  0.000  0.000  0.000 -0.000
 506 C    6  0.000 -0.000  0.000  0.000  0.000  0.000 -0.000
 507 C    6  0.000 -0.000  0.000  0.000  0.000  0.000 -0.000
 508 C    6  0.000 -0.000  0.000  0.000  0.000  0.000 -0.000
 509 C    6  0.000 -0.000  0.000  0.000  0.000  0.000 -0.000
 510 C    6  0.000 -0.000  0.000  0.000  0.000  0.000 -0.000
 511 C    6  0.000 -0.000  0.000  0.000  0.000  0.000 -0.000
 512 C    6  0.000 -0.000  0.000  0.000  0.000  0.000 -0.000
 513 C    6  0.000 -0.000  0.000  0.000  0.000  0.000 -0.000
 514 C    6  0.000 -0.000  0.000  0.000  0.000  0.000 -0.000
 515 C    6  0.000 -0.000  0.000  0.000  0.000  0.000 -0.000
 516 C    6  0.000 -0.000  0.000  0.000  0.000  0.000 -0.000
 517 C    6  0.000 -0.000  0.000  0.000  0.000  0.000 -0.000
 518 C    6  0.000 -0.000  0.000  0.000  0.000  0.000 -0.000
 519 C    6  0.000 -0.000  0.000  0.000  0.000  0.000 -0.000
 520 C    6  0.000 -0.000  0.000  0.000  0.000  0.000 -0.000
 521 C    6  0.000 -0.000  0.000  0.000  0.000  0.000 -0.000
 522 C    6  0.000 -0.000  0.000  0.000  0.000  0.000 -0.000
 523 C    6  0.000 -0.000  0.000  0.000  0.000  0.000 -0.000
 524 C    6  0.000 -0.000  0.000  0.000  0.000  0.000 -0.000
 525 C    6  0.000 -0.000  0.000  0.000  0.000  0.000 -0.000
 526 C    6  0.000 -0.000  0.000  0.000  0.000  0.000 -0.000
 527 C    6  0.000 -0.000  0.000  0.000  0.000  0.000 -0.000
 528 C    6  0.000 -0.000  0.000  0.000  0.000  0.000 -0.000
 529 C    6 -0.000  0.000 -0.000 -0.000 -0.000 -0.000  0.000
 530 C    6 -0.000  0.000 -0.000 -0.000 -0.000 -0.000  0.000
 531 C    6 -0.000  0.000 -0.000 -0.000 -0.000 -0.000  0.000
 532 C    6 -0.000  0.000 -0.000 -0.000 -0.000 -0.000  0.000
 533 C    6 -0.000  0.000 -0.000 -0.000 -0.000 -0.000  0.000
 534 C    6 -0.000  0.000 -0.000 -0.000 -0.000 -0.000  0.000
 535 C    6 -0.000  0.000 -0.000 -0.000 -0.000 -0.000  0.000
 536 C    6 -0.000  0.000 -0.000 -0.000 -0.000 -0.000  0.000
 537 C    6 -0.000  0.000 -0.000 -0.000 -0.000 -0.000  0.000
 538 C    6 -0.000  0.000 -0.000 -0.000 -0.000 -0.000  0.000
 539 C    6 -0.000  0.000 -0.000 -0.000 -0.000 -0.000  0.000
 540 C    6 -0.000  0.000 -0.000 -0.000 -0.000 -0.000  0.000
 541 C    6 -0.000  0.000 -0.000 -0.000 -0.000 -0.000  0.000
 542 C    6 -0.000  0.000 -0.000 -0.000 -0.000 -0.000  0.000
 543 C    6 -0.000  0.000 -0.000 -0.000 -0.000 -0.000  0.000
 544 C    6 -0.000  0.000 -0.000 -0.000 -0.000 -0.000  0.000
 545 C    6 -0.000  0.000 -0.000 -0.000 -0.000 -0.000  0.000
 546 C    6 -0.000  0.000 -0.000 -0.000 -0.000 -0.000  0.000
 547 C    6 -0.000  0.000 -0.000 -0.000 -0.000 -0.000  0.000
 548 C    6 -0.000  0.000 -0.000 -0.000 -0.000 -0.000  0.000
 549 C    6 -0.000  0.000 -0.000 -0.000 -0.000 -0.000  0.000
 550 C    6 -0.000  0.000 -0.000 -0.000 -0.000 -0.000  0.000
 551 C    6 -0.000  0.000 -0.000 -0.000 -0.000 -0.000  0.000
 552 C    6 -0.000  0.000 -0.000 -0.000 -0.000 -0.000  0.000
 553 H    1 -0.000 -0.000 -0.000 -0.000
 554 H    1 -0.000 -0.000 -0.000 -0.000
 555 H    1 -0.000 -0.000 -0.000 -0.000
 556 H    1 -0.000 -0.000 -0.000 -0.000
 557 H    1 -0.000 -0.000 -0.000 -0.000
 558 H    1 -0.000 -0.000 -0.000 -0.000
 559 H    1 -0.000 -0.000 -0.000 -0.000
 560 H    1 -0.000 -0.000 -0.000 -0.000
 561 H    1 -0.000 -0.000 -0.000 -0.000
 562 H    1 -0.000 -0.000 -0.000 -0.000
 563 H    1 -0.000 -0.000 -0.000 -0.000
 564 H    1 -0.000 -0.000 -0.000 -0.000
 565 H    1 -0.000 -0.000 -0.000 -0.000
 566 H    1 -0.000 -0.000 -0.000 -0.000
 567 H    1 -0.000 -0.000 -0.000 -0.000
 568 H    1 -0.000 -0.000 -0.000 -0.000
 569 H    1 -0.000 -0.000 -0.000 -0.000
 570 H    1 -0.000 -0.000 -0.000 -0.000
 571 H    1 -0.000 -0.000 -0.000 -0.000
 572 H    1 -0.000 -0.000 -0.000 -0.000
 573 H    1 -0.000 -0.000 -0.000 -0.000
 574 H    1 -0.000 -0.000 -0.000 -0.000
 575 H    1 -0.000 -0.000 -0.000 -0.000
 576 H    1 -0.000 -0.000 -0.000 -0.000
 577 H    1  0.000  0.000  0.000  0.000
 578 H    1  0.000  0.000  0.000  0.000
 579 H    1  0.000  0.000  0.000  0.000
 580 H    1  0.000  0.000  0.000  0.000
 581 H    1  0.000  0.000  0.000  0.000
 582 H    1  0.000  0.000  0.000  0.000
 583 H    1  0.000  0.000  0.000  0.000
 584 H    1  0.000  0.000  0.000  0.000
 585 H    1  0.000  0.000  0.000  0.000
 586 H    1  0.000  0.000  0.000  0.000
 587 H    1  0.000  0.000  0.000  0.000
 588 H    1  0.000  0.000  0.000  0.000
 589 H    1  0.000  0.000  0.000  0.000
 590 H    1  0.000  0.000  0.000  0.000
 591 H    1  0.000  0.000  0.000  0.000
 592 H    1  0.000  0.000  0.000  0.000
 593 H    1  0.000  0.000  0.000  0.000
 594 H    1  0.000  0.000  0.000  0.000
 595 H    1  0.000  0.000  0.000  0.000
 596 H    1  0.000  0.000  0.000  0.000
 597 H    1  0.000  0.000  0.000  0.000
 598 H    1  0.000  0.000  0.000  0.000
 599 H    1  0.000  0.000  0.000  0.000
 600 H    1  0.000  0.000  0.000  0.000
 601 C    6  0.000 -0.000 -0.000  0.000  0.000 -0.000 -0.000
 602 C    6  0.000 -0.000 -0.000  0.000  0.000 -0.000 -0.000
 603 C    6  0.000 -0.000 -0.000  0.000  0.000 -0.000 -0.000
 604 C    6  0.000 -0.000 -0.000  0.000  0.000 -0.000 -0.000
 605 C    6  0.000 -0.000 -0.000  0.000  0.000 -0.000 -0.000
 606 C    6  0.000 -0.000 -0.000  0.000  0.000 -0.000 -0.000

 OVERLAP POPULATION CONDENSED TO ATOMS FOR FIRST   6 NEIGHBORS

 ATOM A   1 C    ATOM B     CELL      R(AB)/AU R(AB)/ANG    OVPOP(AB)
                 73 C    (  0  0  0)     2.573     1.362     0.000
                481 O    (  0  0  0)     2.592     1.372    -0.000
                313 C    (  0  0  0)     2.680     1.418    -0.000
                577 H    (  0  0  0)     4.084     2.161    -0.000
                337 B    (  0  0  0)     4.173     2.208    -0.000
                409 O    (  0  0  0)     4.281     2.265    -0.000

 ATOM A  25 C    ATOM B     CELL      R(AB)/AU R(AB)/ANG    OVPOP(AB)
                553 H    (  0  0  0)     2.053     1.086    -0.000
                313 C    (  0  0  0)     2.573     1.362    -0.000
                433 C    (  0  0  0)     2.687     1.422     0.000
                457 N    (  0  0  0)     4.500     2.381     0.000
                  1 C    (  0  0  0)     4.609     2.439    -0.000
                409 O    (  0  0  0)     4.658     2.465    -0.000

 ATOM A  49 H    ATOM B     CELL      R(AB)/AU R(AB)/ANG    OVPOP(AB)
                169 C    (  0  0  0)     2.059     1.089    -0.000
                217 C    (  0  0  0)     4.059     2.148    -0.000
                193 C    (  0  0  0)     4.075     2.156     0.000
                 97 H    (  0  0  0)     4.687     2.480     0.000
                409 O    (  0  0  0)     5.086     2.691    -0.000
                337 B    (  0  0  0)     5.187     2.745     0.000

 ATOM A  73 C    ATOM B     CELL      R(AB)/AU R(AB)/ANG    OVPOP(AB)
                577 H    (  0  0  0)     2.053     1.086     0.000
                  1 C    (  0  0  0)     2.573     1.362     0.000
                385 C    (  0  0  0)     2.686     1.422    -0.000
                361 N    (  0  0  0)     4.500     2.381    -0.000
                313 C    (  0  0  0)     4.609     2.439     0.000
                481 O    (  0  0  0)     4.658     2.465     0.000

 ATOM A  97 H    ATOM B     CELL      R(AB)/AU R(AB)/ANG    OVPOP(AB)
                217 C    (  0  0  0)     2.060     1.090     0.000
                241 C    (  0  0  0)     4.066     2.152     0.000
                169 C    (  0  0  0)     4.068     2.153     0.000
                 49 H    (  0  0  0)     4.687     2.480     0.000
                244 C    (  0  0  0)     4.815     2.548     0.000
                308 H    (  0  0  0)     4.832     2.557     0.000

 ATOM A 121 H    ATOM B     CELL      R(AB)/AU R(AB)/ANG    OVPOP(AB)
                145 C    (  0  0  0)     2.059     1.090     0.000
                193 C    (  0  0  0)     4.063     2.150     0.000
                265 C    (  0  0  0)     4.063     2.150     0.000
                289 H    (  0  0  0)     4.670     2.471    -0.000
                481 O    (  0  0  0)     5.080     2.688     0.000
                337 B    (  0  0  0)     5.174     2.738     0.000

 ATOM A 145 C    ATOM B     CELL      R(AB)/AU R(AB)/ANG    OVPOP(AB)
                121 H    (  0  0  0)     2.059     1.090     0.000
                265 C    (  0  0  0)     2.631     1.392     0.000
                193 C    (  0  0  0)     2.641     1.397     0.000
                289 H    (  0  0  0)     4.066     2.152    -0.000
                169 C    (  0  0  0)     4.537     2.401     0.000
                241 C    (  0  0  0)     4.573     2.420     0.000

 ATOM A 169 C    ATOM B     CELL      R(AB)/AU R(AB)/ANG    OVPOP(AB)
                 49 H    (  0  0  0)     2.059     1.089    -0.000
                217 C    (  0  0  0)     2.619     1.386    -0.000
                193 C    (  0  0  0)     2.651     1.403     0.000
                 97 H    (  0  0  0)     4.068     2.153     0.000
                145 C    (  0  0  0)     4.537     2.401     0.000
                241 C    (  0  0  0)     4.588     2.428    -0.000

 ATOM A 193 C    ATOM B     CELL      R(AB)/AU R(AB)/ANG    OVPOP(AB)
                145 C    (  0  0  0)     2.641     1.397     0.000
                169 C    (  0  0  0)     2.651     1.403     0.000
                337 B    (  0  0  0)     2.886     1.527     0.000
                121 H    (  0  0  0)     4.063     2.150     0.000
                 49 H    (  0  0  0)     4.075     2.156     0.000
                217 C    (  0  0  0)     4.581     2.424     0.000

 ATOM A 217 C    ATOM B     CELL      R(AB)/AU R(AB)/ANG    OVPOP(AB)
                 97 H    (  0  0  0)     2.060     1.090     0.000
                169 C    (  0  0  0)     2.619     1.386    -0.000
                241 C    (  0  0  0)     2.653     1.404    -0.000
                 49 H    (  0  0  0)     4.059     2.148    -0.000
                265 C    (  0  0  0)     4.543     2.404     0.000
                308 H    (  0  0  0)     4.561     2.414    -0.000

 ATOM A 241 C    ATOM B     CELL      R(AB)/AU R(AB)/ANG    OVPOP(AB)
                265 C    (  0  0  0)     2.636     1.395     0.000
                217 C    (  0  0  0)     2.653     1.404    -0.000
                605 C    (  0  0  0)     2.898     1.533    -0.000
                 97 H    (  0  0  0)     4.066     2.152     0.000
                289 H    (  0  0  0)     4.067     2.152     0.000
                145 C    (  0  0  0)     4.573     2.420     0.000

 ATOM A 265 C    ATOM B     CELL      R(AB)/AU R(AB)/ANG    OVPOP(AB)
                289 H    (  0  0  0)     2.056     1.088    -0.000
                145 C    (  0  0  0)     2.631     1.392     0.000
                241 C    (  0  0  0)     2.636     1.395     0.000
                121 H    (  0  0  0)     4.063     2.150     0.000
                217 C    (  0  0  0)     4.543     2.404     0.000
                193 C    (  0  0  0)     4.594     2.431    -0.000

 ATOM A 289 H    ATOM B     CELL      R(AB)/AU R(AB)/ANG    OVPOP(AB)
                265 C    (  0  0  0)     2.056     1.088    -0.000
                145 C    (  0  0  0)     4.066     2.152    -0.000
                241 C    (  0  0  0)     4.067     2.152     0.000
                238 C    (  0  0  0)     4.561     2.414    -0.000
                121 H    (  0  0  0)     4.670     2.471    -0.000
                262 C    (  0  0  0)     4.697     2.486    -0.000

 ATOM A 313 C    ATOM B     CELL      R(AB)/AU R(AB)/ANG    OVPOP(AB)
                 25 C    (  0  0  0)     2.573     1.362    -0.000
                409 O    (  0  0  0)     2.592     1.372     0.000
                  1 C    (  0  0  0)     2.680     1.418    -0.000
                553 H    (  0  0  0)     4.083     2.161    -0.000
                337 B    (  0  0  0)     4.173     2.208     0.000
                481 O    (  0  0  0)     4.281     2.265     0.000

 ATOM A 337 B    ATOM B     CELL      R(AB)/AU R(AB)/ANG    OVPOP(AB)
                481 O    (  0  0  0)     2.630     1.392     0.000
                409 O    (  0  0  0)     2.630     1.392    -0.000
                193 C    (  0  0  0)     2.886     1.527     0.000
                  1 C    (  0  0  0)     4.173     2.208    -0.000
                313 C    (  0  0  0)     4.173     2.208     0.000
                145 C    (  0  0  0)     4.811     2.546    -0.000

 ATOM A 361 N    ATOM B     CELL      R(AB)/AU R(AB)/ANG    OVPOP(AB)
                505 C    (  0  0  0)     2.502     1.324     0.000
                385 C    (  0  0  0)     2.545     1.347     0.000
                 73 C    (  0  0  0)     4.500     2.381    -0.000
                533 C    (  0  0  0)     4.537     2.401    -0.000
                529 C    (  0  0  0)     4.539     2.402     0.000
                433 C    (  0  0  0)     4.572     2.419     0.000

 ATOM A 385 C    ATOM B     CELL      R(AB)/AU R(AB)/ANG    OVPOP(AB)
                361 N    (  0  0  0)     2.545     1.347     0.000
                 73 C    (  0  0  0)     2.686     1.422    -0.000
                433 C    (  0  0  0)     2.716     1.437     0.000
                577 H    (  0  0  0)     4.111     2.175    -0.000
                505 C    (  0  0  0)     4.322     2.287    -0.000
                  1 C    (  0  0  0)     4.478     2.370    -0.000

 ATOM A 409 O    ATOM B     CELL      R(AB)/AU R(AB)/ANG    OVPOP(AB)
                313 C    (  0  0  0)     2.592     1.372     0.000
                337 B    (  0  0  0)     2.630     1.392    -0.000
                  1 C    (  0  0  0)     4.281     2.265    -0.000
                481 O    (  0  0  0)     4.330     2.291     0.000
                 25 C    (  0  0  0)     4.658     2.465    -0.000
                193 C    (  0  0  0)     4.885     2.585     0.000

 ATOM A 433 C    ATOM B     CELL      R(AB)/AU R(AB)/ANG    OVPOP(AB)
                457 N    (  0  0  0)     2.545     1.347    -0.000
                 25 C    (  0  0  0)     2.687     1.422     0.000
                385 C    (  0  0  0)     2.716     1.437     0.000
                553 H    (  0  0  0)     4.111     2.175     0.000
                529 C    (  0  0  0)     4.322     2.287     0.000
                313 C    (  0  0  0)     4.478     2.370     0.000

 ATOM A 457 N    ATOM B     CELL      R(AB)/AU R(AB)/ANG    OVPOP(AB)
                529 C    (  0  0  0)     2.502     1.324     0.000
                433 C    (  0  0  0)     2.545     1.347    -0.000
                 25 C    (  0  0  0)     4.500     2.381     0.000
                510 C    (  0  0  0)     4.537     2.401     0.000
                505 C    (  0  0  0)     4.539     2.402     0.000
                385 C    (  0  0  0)     4.572     2.419    -0.000

 ATOM A 481 O    ATOM B     CELL      R(AB)/AU R(AB)/ANG    OVPOP(AB)
                  1 C    (  0  0  0)     2.592     1.372    -0.000
                337 B    (  0  0  0)     2.630     1.392     0.000
                313 C    (  0  0  0)     4.281     2.265     0.000
                409 O    (  0  0  0)     4.330     2.291     0.000
                 73 C    (  0  0  0)     4.658     2.465     0.000
                193 C    (  0  0  0)     4.887     2.586    -0.000

 ATOM A 505 C    ATOM B     CELL      R(AB)/AU R(AB)/ANG    OVPOP(AB)
                361 N    (  0  0  0)     2.502     1.324     0.000
                529 C    (  0  0  0)     2.699     1.428     0.000
                533 C    (  0  0  0)     2.774     1.468     0.000
                385 C    (  0  0  0)     4.322     2.287    -0.000
                461 N    (  0  0  0)     4.537     2.401     0.000
                457 N    (  0  0  0)     4.539     2.402     0.000

 ATOM A 529 C    ATOM B     CELL      R(AB)/AU R(AB)/ANG    OVPOP(AB)
                457 N    (  0  0  0)     2.502     1.324     0.000
                505 C    (  0  0  0)     2.699     1.428     0.000
                510 C    (  0  0  0)     2.774     1.468     0.000
                433 C    (  0  0  0)     4.322     2.287     0.000
                366 N    (  0  0  0)     4.537     2.401    -0.000
                361 N    (  0  0  0)     4.539     2.402     0.000

 ATOM A 553 H    ATOM B     CELL      R(AB)/AU R(AB)/ANG    OVPOP(AB)
                 25 C    (  0  0  0)     2.053     1.086    -0.000
                313 C    (  0  0  0)     4.083     2.161    -0.000
                433 C    (  0  0  0)     4.111     2.175     0.000
                457 N    (  0  0  0)     4.945     2.617     0.000
                409 O    (  0  0  0)     5.342     2.827    -0.000
                  1 C    (  0  0  0)     6.504     3.442    -0.000

 ATOM A 577 H    ATOM B     CELL      R(AB)/AU R(AB)/ANG    OVPOP(AB)
                 73 C    (  0  0  0)     2.053     1.086     0.000
                  1 C    (  0  0  0)     4.084     2.161    -0.000
                385 C    (  0  0  0)     4.111     2.175    -0.000
                361 N    (  0  0  0)     4.945     2.617     0.000
                481 O    (  0  0  0)     5.342     2.827     0.000
                313 C    (  0  0  0)     6.504     3.442     0.000

 ATOM A 601 C    ATOM B     CELL      R(AB)/AU R(AB)/ANG    OVPOP(AB)
                248 C    (  0  0  0)     2.898     1.533    -0.000
                224 C    (  0  0  0)     4.762     2.520     0.000
                272 C    (  0  0  0)     4.877     2.581     0.000
                104 H    (  0  0  0)     5.063     2.679     0.000
                296 H    (  0  0  0)     5.293     2.801     0.000
                176 C    (  0  0  0)     7.199     3.810    -0.000
 EIGENVECTORS IN FORTRAN UNIT 10
 TTTTTTTTTTTTTTTTTTTTTTTTTTTTTT END         TELAPSE      451.97 TCPU      443.05
 MMMMM END         USED MEM(MB)     86.81 MAX MEM    310.08 TOT MEM      2083.56
 EEEEEEEEEE TERMINATION  DATE 28 04 2025 TIME 16:44:40.8
NODE    0 CPU TIME =       443.050
NODE    1 CPU TIME =       443.421
NODE    2 CPU TIME =       443.415
NODE    3 CPU TIME =       443.832
NODE    4 CPU TIME =       443.662
NODE    5 CPU TIME =       443.715
NODE    6 CPU TIME =       443.614
NODE    7 CPU TIME =       443.489
NODE    8 CPU TIME =       444.436
NODE    9 CPU TIME =       443.299
NODE   10 CPU TIME =       443.868
NODE   11 CPU TIME =       444.616
NODE   12 CPU TIME =       443.902
NODE   13 CPU TIME =       444.169
NODE   14 CPU TIME =       441.344
NODE   15 CPU TIME =       444.098
NODE   16 CPU TIME =       443.024
NODE   17 CPU TIME =       440.882
NODE   18 CPU TIME =       443.299
NODE   19 CPU TIME =       441.066
NODE   20 CPU TIME =       443.295
NODE   21 CPU TIME =       442.902
NODE   22 CPU TIME =       440.698
NODE   23 CPU TIME =       443.604
    TOTAL CPU TIME =     10636.700
