 PROCESS            1  OF           32  WORKING
 PROCESS            2  OF           32  WORKING
 PROCESS            3  OF           32  WORKING
 PROCESS            5  OF           32  WORKING
 PROCESS            6  OF           32  WORKING
 PROCESS            9  OF           32  WORKING
 PROCESS           31  OF           32  WORKING
 PROCESS            0  OF           32  WORKING
 PROCESS           11  OF           32  WORKING
 PROCESS           24  OF           32  WORKING

 PROCESS            4  OF           32  WORKING
         
 *******************************************************************************
 *                                                                             *
 *                               CRYSTAL17                                     *
 *                      public : 1.0.2 - March 1st, 2018                       *
 *                       HTTP://WWW.CRYSTAL.UNITO.IT                           *
 PROCESS           14  OF           32  WORKING
 PROCESS           18  OF           32  WORKING
 *                                                                             *
 PROCESS           15  OF           32  WORKING
 *                              MAIN AUTHORS                                   *
 *                                                                             *
 PROCESS           30  OF           32  WORKING
 PROCESS            7  OF           32  WORKING
 *  R. DOVESI(1,11), V.R. SAUNDERS(2), C. ROETTI(1,11), R. ORLANDO(1,11),      *
 *  C.M. ZICOVICH-WILSON(1,3), F. PASCALE(4), B. CIVALLERI(1,11),              *
 *  K. DOLL(5), N.M. HARRISON(2,6), I.J. BUSH(7), Ph. D'ARCO(8),               *
 *  M. LLUNELL(9), M. CAUSA'(10), Y. NOEL(8), L. MASCHIO(1,11), A. ERBA(1,11)  *
 *  M. RE'RAT(14), S. CASASSA(1,11)                                            *
 *                                                                             *
 *        CONTRIBUTIONS TO THE CODE HAVE ALSO BEEN GIVEN BY                    *
 *                                                                             *
 *  M. FERRABONE(1,11), M. DE LA PIERRE(1,11), M. FERRERO(1,11),               *
 *  J. BAIMA(1,11), E. ALBANESE(1,11), M.F. PEINTINGER(12), R. BAST(13),       *
 *  B. KIRTMAN(15), V. LACIVITA(1,11), R. DEMICHELIS(1,16)                     *
 *  G. BRANDEBURG(17), S. SALUSTRO(1,11), G. SANSONE(1,11)                     *
 *  M.T. RUGGIERO(18)                                                          *
 *                                                                             *
 * (1) THEORETICAL CHEMISTRY GROUP - UNIVERSITA' DI TORINO - TORINO (ITALY)    *
 * (2) COMPUTATIONAL SCIENCE & ENGINEERING DEPARTMENT - STFC DARESBURY (UK)    *
 * (3) UNIVERSIDAD AUTONOMA DEL ESTADO DE MORELOS - CUERNAVACA (MEXICO)        *
 * (4) UNIVERSITE' DE LORRAINE - NANCY (FRANCE)                                *
 * (5) UNIVERSITAET STUTTGART- STUTTGART (GERMANY)                             *
 * (6) IMPERIAL COLLEGE - LONDON (UK)                                          *
 * (7) OXFORD E-RESEARCH CENTRE - OXFORD (UK)                                  *
 * (8) UPMC - SORBONNE UNIVERSITES - PARIS (FRANCE)                            *
 * (9) UNIVERSIDAD DE BARCELONA - BARCELONA (SPAIN)                            *
 *(10) UNIVERSITA' DI NAPOLI "FEDERICO II" - NAPOLI (ITALY)                    *
 *(11) NIS - NANOSTRUCTURED INTERFACES AND SURFACES - TORINO (ITALY)           *
 *(12) MPI FUER CHEMISCHE ENERGIEKONVERSION - MUELHEIM AN DER RUHR (GERMANY)   *
 *(13) UNIVERSITY OF TROMSO - TROMSO (NORWAY)                                  *
 *(14) UNIVERSITE' DE PAU ET DES PAYS DE L'ADOUR - PAU (FRANCE)                *
 *(15) UNIVERSITY OF CALIFORNIA SANTA BARBARA - SANTA BARBARA (USA)            *
 *(16) CURTIN UNIVERSITY - PERTH (AUSTRALIA)                                   *
 *(17) UNIVERSITY COLLEGE LONDON - LONDON (UK)                                 *
 *(18) CAMBRIDGE UNIVERSITY - CAMBRIDGE (UK)                                   *
 *                                                                             *
 *******************************************************************************
 EEEEEEEEEE STARTING  DATE 25 07 2024 TIME 00:10:32.1
 IRCOF102_sym                                                                    
 PROCESS            8  OF           32  WORKING
 PROCESS           10  OF           32  WORKING
 PROCESS           13  OF           32  WORKING
 PROCESS           23  OF           32  WORKING

 CRYSTAL CALCULATION
 (INPUT ACCORDING TO THE INTERNATIONAL TABLES FOR X-RAY CRYSTALLOGRAPHY)
 CRYSTAL FAMILY                       :  CUBIC       
 CRYSTAL CLASS  (GROTH - 1921)        :  CUBIC HEXAKISTETRAHEDRAL             

 SPACE GROUP (NONCENTROSYMMETRIC)     :  I -4 3 D        

 LATTICE PARAMETERS  (ANGSTROMS AND DEGREES) - CONVENTIONAL CELL
        A           B           C        ALPHA        BETA       GAMMA
    43.17142    43.17142    43.17142    90.00000    90.00000    90.00000


 NUMBER OF IRREDUCIBLE ATOMS IN THE CONVENTIONAL CELL:   23

 INPUT COORDINATES

 ATOM AT. N.              COORDINATES
   1   8    -2.400438569873E-01  2.896233914167E-01  1.955396668896E-01
   2   1     1.177335727438E-01 -4.919103590356E-02 -2.913928873757E-01
   3   1     2.222493355647E-01 -1.089433705583E-01 -2.196007907986E-01
   4   1     1.499272294235E-01 -9.632093644765E-02 -2.962900429277E-01
   5   1     1.797819854120E-01 -1.382228319367E-02 -2.216576692091E-01
   6   1     2.575874662680E-01 -1.538158869967E-01 -2.275622640653E-01
 PROCESS           28  OF           32  WORKING
   7   1     2.132847149067E-01 -6.008724010092E-02 -2.278324425790E-01
   8   6     1.457368854561E-01 -2.854342003575E-02 -2.553806345410E-01
 PROCESS           22  OF           32  WORKING
 PROCESS           29  OF           32  WORKING
   9   6     1.729441422025E-01 -3.234367625537E-02 -2.376580597818E-01
 PROCESS           19  OF           32  WORKING
  10   6     1.917119430505E-01 -5.844729356985E-02 -2.411142536515E-01
  11   6     1.568989088761E-01 -7.818190113321E-02 -2.799555454766E-01
  12   6     1.840907885594E-01 -8.209062090094E-02 -2.623628744124E-01
  13   6     2.238138207657E-01 -1.515694103393E-01 -2.988591032207E-01
  14   6     1.382860390868E-01 -5.187675629589E-02 -2.767512354013E-01
  15   1     2.240662203091E-01 -1.638552542813E-01 -3.210934662131E-01
 PROCESS           16  OF           32  WORKING
 PROCESS           17  OF           32  WORKING
  16   6     2.231908290008E-01 -1.204379887962E-01 -2.422230949419E-01
  17   6     2.432741204629E-01 -1.621436230294E-01 -2.748545496898E-01
  18   1     1.911960573755E-01 -1.169831191039E-01 -3.144499152043E-01
  19   6     2.050320298475E-01 -1.255635430063E-01 -2.949707632474E-01
  20   6     2.041557443253E-01 -1.095416928441E-01 -2.664768624291E-01
  21   6     2.426623893557E-01 -1.458853903289E-01 -2.465304413936E-01
  22   5     2.648169163377E-01 -1.902230938362E-01 -2.797979665692E-01
  23   6     0.000000000000E+00 -2.500000000000E-01  1.250000000000E-01

 PROCESS           26  OF           32  WORKING
 *******************************************************************************
 PROCESS           25  OF           32  WORKING
 PROCESS           27  OF           32  WORKING
 PROCESS           21  OF           32  WORKING

 << INFORMATION >>: FROM NOW ON, ALL COORDINATES REFER TO THE PRIMITIVE CELL

 PROCESS           20  OF           32  WORKING
 *******************************************************************************

 LATTICE PARAMETERS  (ANGSTROMS AND DEGREES) - PRIMITIVE CELL
       A          B          C        ALPHA      BETA     GAMMA        VOLUME
   37.38755   37.38755   37.38755   109.47122 109.47122 109.47122  40230.839428

 COORDINATES OF THE EQUIVALENT ATOMS (FRACTIONAL UNITS)

 N. ATOM EQUIV AT. N.          X                  Y                  Z

   1   1   1    8 O     4.85163058306E-01 -4.45041900977E-02  4.95795344294E-02
   2   1   2    8 O     4.05916275473E-01  4.35583523877E-01  4.50420465571E-01
   3   1   3    8 O     1.48369416937E-02  6.44164761231E-02  4.70332751596E-01
   4   1   4    8 O     9.40837245271E-02 -4.55495809902E-01  2.96672484040E-02
   5   1   5    8 O     4.95795344294E-02  4.85163058306E-01 -4.45041900977E-02
   6   1   6    8 O    -4.45041900977E-02  4.95795344294E-02  4.85163058306E-01
   7   1   7    8 O     2.96672484040E-02  9.40837245271E-02 -4.55495809902E-01
   8   1   8    8 O     4.35583523877E-01  4.50420465571E-01  4.05916275473E-01
   9   1   9    8 O     4.50420465571E-01  4.05916275473E-01  4.35583523877E-01
  10   1  10    8 O     6.44164761231E-02  4.70332751596E-01  1.48369416937E-02
  11   1  11    8 O     4.70332751596E-01  1.48369416937E-02  6.44164761231E-02
  12   1  12    8 O    -4.55495809902E-01  2.96672484040E-02  9.40837245271E-02
  13   1  13    8 O     4.55495809902E-01 -1.48369416937E-02 -4.50420465571E-01
  14   1  14    8 O    -6.44164761231E-02 -9.40837245271E-02 -4.95795344294E-02
  15   1  15    8 O    -4.35583523877E-01 -4.85163058306E-01 -2.96672484040E-02
  16   1  16    8 O     4.45041900977E-02 -4.05916275473E-01 -4.70332751596E-01
  17   1  17    8 O    -1.48369416937E-02 -4.50420465571E-01  4.55495809902E-01
  18   1  18    8 O    -4.50420465571E-01  4.55495809902E-01 -1.48369416937E-02
  19   1  19    8 O    -4.05916275473E-01 -4.70332751596E-01  4.45041900977E-02
  20   1  20    8 O    -4.95795344294E-02 -6.44164761231E-02 -9.40837245271E-02
  21   1  21    8 O    -9.40837245271E-02 -4.95795344294E-02 -6.44164761231E-02
  22   1  22    8 O    -2.96672484040E-02 -4.35583523877E-01 -4.85163058306E-01
  23   1  23    8 O    -4.85163058306E-01 -2.96672484040E-02 -4.35583523877E-01
  24   1  24    8 O    -4.70332751596E-01  4.45041900977E-02 -4.05916275473E-01

  25   2   1    1 H    -3.40583923279E-01 -1.73659314632E-01  6.85425368402E-02
  26   2   2    1 H     2.57798148528E-01 -4.09126460120E-01  4.31457463160E-01
  27   2   3    1 H    -1.59416076721E-01 -9.08735398805E-02  1.66924608647E-01
  28   2   4    1 H     2.42201851472E-01 -3.26340685368E-01  3.33075391353E-01
  29   2   5    1 H     6.85425368402E-02 -3.40583923279E-01 -1.73659314632E-01
  30   2   6    1 H    -1.73659314632E-01  6.85425368402E-02 -3.40583923279E-01
  31   2   7    1 H     3.33075391353E-01  2.42201851472E-01 -3.26340685368E-01
  32   2   8    1 H    -4.09126460120E-01  4.31457463160E-01  2.57798148528E-01
  33   2   9    1 H     4.31457463160E-01  2.57798148528E-01 -4.09126460120E-01
  34   2  10    1 H    -9.08735398805E-02  1.66924608647E-01 -1.59416076721E-01
  35   2  11    1 H     1.66924608647E-01 -1.59416076721E-01 -9.08735398805E-02
  36   2  12    1 H    -3.26340685368E-01  3.33075391353E-01  2.42201851472E-01
  37   2  13    1 H     3.26340685368E-01  1.59416076721E-01 -4.31457463160E-01
  38   2  14    1 H     9.08735398805E-02 -2.42201851472E-01 -6.85425368402E-02
  39   2  15    1 H     4.09126460120E-01  3.40583923279E-01 -3.33075391353E-01
  40   2  16    1 H     1.73659314632E-01 -2.57798148528E-01 -1.66924608647E-01
  41   2  17    1 H     1.59416076721E-01 -4.31457463160E-01  3.26340685368E-01
  42   2  18    1 H    -4.31457463160E-01  3.26340685368E-01  1.59416076721E-01
  43   2  19    1 H    -2.57798148528E-01 -1.66924608647E-01  1.73659314632E-01
  44   2  20    1 H    -6.85425368402E-02  9.08735398805E-02 -2.42201851472E-01
  45   2  21    1 H    -2.42201851472E-01 -6.85425368402E-02  9.08735398805E-02
  46   2  22    1 H    -3.33075391353E-01  4.09126460120E-01  3.40583923279E-01
  47   2  23    1 H     3.40583923279E-01 -3.33075391353E-01  4.09126460120E-01
  48   2  24    1 H    -1.66924608647E-01  1.73659314632E-01 -2.57798148528E-01

  49   3   1    1 H    -3.28544161357E-01  2.64854476610E-03  1.13305965006E-01
  50   3   2    1 H     3.89342579760E-01 -4.41850126363E-01  3.86694034994E-01
  51   3   3    1 H    -1.71455838643E-01 -5.81498736367E-02  3.31192706123E-01
  52   3   4    1 H     1.10657420240E-01  4.97351455234E-01  1.68807293877E-01
  53   3   5    1 H     1.13305965006E-01 -3.28544161357E-01  2.64854476610E-03
  54   3   6    1 H     2.64854476610E-03  1.13305965006E-01 -3.28544161357E-01
  55   3   7    1 H     1.68807293877E-01  1.10657420240E-01  4.97351455234E-01
  56   3   8    1 H    -4.41850126363E-01  3.86694034994E-01  3.89342579760E-01
  57   3   9    1 H     3.86694034994E-01  3.89342579760E-01 -4.41850126363E-01
  58   3  10    1 H    -5.81498736367E-02  3.31192706123E-01 -1.71455838643E-01
  59   3  11    1 H     3.31192706123E-01 -1.71455838643E-01 -5.81498736367E-02
  60   3  12    1 H     4.97351455234E-01  1.68807293877E-01  1.10657420240E-01
  61   3  13    1 H    -4.97351455234E-01  1.71455838643E-01 -3.86694034994E-01
  62   3  14    1 H     5.81498736367E-02 -1.10657420240E-01 -1.13305965006E-01
  63   3  15    1 H     4.41850126363E-01  3.28544161357E-01 -1.68807293877E-01
  64   3  16    1 H    -2.64854476610E-03 -3.89342579760E-01 -3.31192706123E-01
  65   3  17    1 H     1.71455838643E-01 -3.86694034994E-01 -4.97351455234E-01
  66   3  18    1 H    -3.86694034994E-01 -4.97351455234E-01  1.71455838643E-01
  67   3  19    1 H    -3.89342579760E-01 -3.31192706123E-01 -2.64854476610E-03
  68   3  20    1 H    -1.13305965006E-01  5.81498736367E-02 -1.10657420240E-01
  69   3  21    1 H    -1.10657420240E-01 -1.13305965006E-01  5.81498736367E-02
  70   3  22    1 H    -1.68807293877E-01  4.41850126363E-01  3.28544161357E-01
  71   3  23    1 H     3.28544161357E-01 -1.68807293877E-01  4.41850126363E-01
  72   3  24    1 H    -3.31192706123E-01 -2.64854476610E-03 -3.89342579760E-01

  73   4   1    1 H    -3.92610979375E-01 -1.46362813504E-01  5.36062929759E-02
  74   4   2    1 H     3.00030893520E-01 -4.46217272351E-01  4.46393707024E-01
  75   4   3    1 H    -1.07389020625E-01 -5.37827276488E-02  2.46248165871E-01
  76   4   4    1 H     1.99969106480E-01 -3.53637186496E-01  2.53751834129E-01
  77   4   5    1 H     5.36062929759E-02 -3.92610979375E-01 -1.46362813504E-01
  78   4   6    1 H    -1.46362813504E-01  5.36062929759E-02 -3.92610979375E-01
  79   4   7    1 H     2.53751834129E-01  1.99969106480E-01 -3.53637186496E-01
  80   4   8    1 H    -4.46217272351E-01  4.46393707024E-01  3.00030893520E-01
  81   4   9    1 H     4.46393707024E-01  3.00030893520E-01 -4.46217272351E-01
  82   4  10    1 H    -5.37827276488E-02  2.46248165871E-01 -1.07389020625E-01
  83   4  11    1 H     2.46248165871E-01 -1.07389020625E-01 -5.37827276488E-02
  84   4  12    1 H    -3.53637186496E-01  2.53751834129E-01  1.99969106480E-01
  85   4  13    1 H     3.53637186496E-01  1.07389020625E-01 -4.46393707024E-01
  86   4  14    1 H     5.37827276488E-02 -1.99969106480E-01 -5.36062929758E-02
  87   4  15    1 H     4.46217272351E-01  3.92610979375E-01 -2.53751834129E-01
  88   4  16    1 H     1.46362813504E-01 -3.00030893520E-01 -2.46248165871E-01
  89   4  17    1 H     1.07389020625E-01 -4.46393707024E-01  3.53637186496E-01
  90   4  18    1 H    -4.46393707024E-01  3.53637186496E-01  1.07389020625E-01
  91   4  19    1 H    -3.00030893520E-01 -2.46248165871E-01  1.46362813504E-01
  92   4  20    1 H    -5.36062929758E-02  5.37827276488E-02 -1.99969106480E-01
  93   4  21    1 H    -1.99969106480E-01 -5.36062929758E-02  5.37827276488E-02
  94   4  22    1 H    -2.53751834129E-01  4.46217272351E-01  3.92610979375E-01
  95   4  23    1 H     3.92610979375E-01 -2.53751834129E-01  4.46217272351E-01
  96   4  24    1 H    -2.46248165871E-01  1.46362813504E-01 -3.00030893520E-01

  97   5   1    1 H    -2.35479952403E-01 -4.18756837971E-02  1.65959702218E-01
  98   5   2    1 H     2.92164613985E-01 -4.01439654621E-01  3.34040297782E-01
  99   5   3    1 H    -2.64520047597E-01 -9.85603453789E-02  1.93604268606E-01
 100   5   4    1 H     2.07835386015E-01 -4.58124316203E-01  3.06395731394E-01
 101   5   5    1 H     1.65959702218E-01 -2.35479952403E-01 -4.18756837971E-02
 102   5   6    1 H    -4.18756837971E-02  1.65959702218E-01 -2.35479952403E-01
 103   5   7    1 H     3.06395731394E-01  2.07835386015E-01 -4.58124316203E-01
 104   5   8    1 H    -4.01439654621E-01  3.34040297782E-01  2.92164613985E-01
 105   5   9    1 H     3.34040297782E-01  2.92164613985E-01 -4.01439654621E-01
 106   5  10    1 H    -9.85603453789E-02  1.93604268606E-01 -2.64520047597E-01
 107   5  11    1 H     1.93604268606E-01 -2.64520047597E-01 -9.85603453789E-02
 108   5  12    1 H    -4.58124316203E-01  3.06395731394E-01  2.07835386015E-01
 109   5  13    1 H     4.58124316203E-01  2.64520047597E-01 -3.34040297782E-01
 110   5  14    1 H     9.85603453789E-02 -2.07835386015E-01 -1.65959702218E-01
 111   5  15    1 H     4.01439654621E-01  2.35479952403E-01 -3.06395731394E-01
 112   5  16    1 H     4.18756837971E-02 -2.92164613985E-01 -1.93604268606E-01
 113   5  17    1 H     2.64520047597E-01 -3.34040297782E-01  4.58124316203E-01
 114   5  18    1 H    -3.34040297782E-01  4.58124316203E-01  2.64520047597E-01
 115   5  19    1 H    -2.92164613985E-01 -1.93604268606E-01  4.18756837971E-02
 116   5  20    1 H    -1.65959702218E-01  9.85603453789E-02 -2.07835386015E-01
 117   5  21    1 H    -2.07835386015E-01 -1.65959702218E-01  9.85603453789E-02
 118   5  22    1 H    -3.06395731394E-01  4.01439654621E-01  2.35479952403E-01
 119   5  23    1 H     2.35479952403E-01 -3.06395731394E-01  4.01439654621E-01
 120   5  24    1 H    -1.93604268606E-01  4.18756837971E-02 -2.92164613985E-01

 121   6   1    1 H    -3.81378151062E-01  3.00252022027E-02  1.03771579271E-01
 122   6   2    1 H     4.26253622931E-01 -4.85149730333E-01  3.96228420729E-01
 123   6   3    1 H    -1.18621848938E-01 -1.48502696667E-02  4.11403353265E-01
 124   6   4    1 H     7.37463770686E-02  4.69974797797E-01  8.85966467353E-02
 125   6   5    1 H     1.03771579271E-01 -3.81378151062E-01  3.00252022027E-02
 126   6   6    1 H     3.00252022027E-02  1.03771579271E-01 -3.81378151062E-01
 127   6   7    1 H     8.85966467353E-02  7.37463770686E-02  4.69974797797E-01
 128   6   8    1 H    -4.85149730333E-01  3.96228420729E-01  4.26253622931E-01
 129   6   9    1 H     3.96228420729E-01  4.26253622931E-01 -4.85149730333E-01
 130   6  10    1 H    -1.48502696667E-02  4.11403353265E-01 -1.18621848938E-01
 131   6  11    1 H     4.11403353265E-01 -1.18621848938E-01 -1.48502696667E-02
 132   6  12    1 H     4.69974797797E-01  8.85966467353E-02  7.37463770686E-02
 133   6  13    1 H    -4.69974797797E-01  1.18621848938E-01 -3.96228420729E-01
 134   6  14    1 H     1.48502696667E-02 -7.37463770686E-02 -1.03771579271E-01
 135   6  15    1 H     4.85149730333E-01  3.81378151062E-01 -8.85966467353E-02
 136   6  16    1 H    -3.00252022027E-02 -4.26253622931E-01 -4.11403353265E-01
 137   6  17    1 H     1.18621848938E-01 -3.96228420729E-01 -4.69974797797E-01
 138   6  18    1 H    -3.96228420729E-01 -4.69974797797E-01  1.18621848938E-01
 139   6  19    1 H    -4.26253622931E-01 -4.11403353265E-01 -3.00252022027E-02
 140   6  20    1 H    -1.03771579271E-01  1.48502696667E-02 -7.37463770686E-02
 141   6  21    1 H    -7.37463770686E-02 -1.03771579271E-01  1.48502696667E-02
 142   6  22    1 H    -8.85966467353E-02  4.85149730333E-01  3.81378151062E-01
 143   6  23    1 H     3.81378151062E-01 -8.85966467353E-02  4.85149730333E-01
 144   6  24    1 H    -4.11403353265E-01 -3.00252022027E-02 -4.26253622931E-01

 145   7   1    1 H    -2.87919682680E-01 -1.45477276723E-02  1.53197474806E-01
 146   7   2    1 H     3.32254797522E-01 -4.41117157486E-01  3.46802525194E-01
 147   7   3    1 H    -2.12080317320E-01 -5.88828425143E-02  2.73371955008E-01
 148   7   4    1 H     1.67745202478E-01 -4.85452272328E-01  2.26628044992E-01
 149   7   5    1 H     1.53197474806E-01 -2.87919682680E-01 -1.45477276723E-02
 150   7   6    1 H    -1.45477276723E-02  1.53197474806E-01 -2.87919682680E-01
 151   7   7    1 H     2.26628044992E-01  1.67745202478E-01 -4.85452272328E-01
 152   7   8    1 H    -4.41117157486E-01  3.46802525194E-01  3.32254797522E-01
 153   7   9    1 H     3.46802525194E-01  3.32254797522E-01 -4.41117157486E-01
 154   7  10    1 H    -5.88828425143E-02  2.73371955008E-01 -2.12080317320E-01
 155   7  11    1 H     2.73371955008E-01 -2.12080317320E-01 -5.88828425143E-02
 156   7  12    1 H    -4.85452272328E-01  2.26628044992E-01  1.67745202478E-01
 157   7  13    1 H     4.85452272328E-01  2.12080317320E-01 -3.46802525194E-01
 158   7  14    1 H     5.88828425143E-02 -1.67745202478E-01 -1.53197474806E-01
 159   7  15    1 H     4.41117157486E-01  2.87919682680E-01 -2.26628044992E-01
 160   7  16    1 H     1.45477276723E-02 -3.32254797522E-01 -2.73371955008E-01
 161   7  17    1 H     2.12080317320E-01 -3.46802525194E-01  4.85452272328E-01
 162   7  18    1 H    -3.46802525194E-01  4.85452272328E-01  2.12080317320E-01
 163   7  19    1 H    -3.32254797522E-01 -2.73371955008E-01  1.45477276723E-02
 164   7  20    1 H    -1.53197474806E-01  5.88828425143E-02 -1.67745202478E-01
 165   7  21    1 H    -1.67745202478E-01 -1.53197474806E-01  5.88828425143E-02
 166   7  22    1 H    -2.26628044992E-01  4.41117157486E-01  2.87919682680E-01
 167   7  23    1 H     2.87919682680E-01 -2.26628044992E-01  4.41117157486E-01
 168   7  24    1 H    -2.73371955008E-01  1.45477276723E-02 -3.32254797522E-01

 169   8   1    6 C    -2.83924054577E-01 -1.09643749085E-01  1.17193465420E-01
 170   8   2    6 C     2.73162785495E-01 -4.01117519997E-01  3.82806534580E-01
 171   8   3    6 C    -2.16075945423E-01 -9.88824800029E-02  1.74280305492E-01
 172   8   4    6 C     2.26837214505E-01 -3.90356250915E-01  3.25719694508E-01
 173   8   5    6 C     1.17193465420E-01 -2.83924054577E-01 -1.09643749085E-01
 174   8   6    6 C    -1.09643749085E-01  1.17193465420E-01 -2.83924054577E-01
 175   8   7    6 C     3.25719694508E-01  2.26837214505E-01 -3.90356250915E-01
 176   8   8    6 C    -4.01117519997E-01  3.82806534580E-01  2.73162785495E-01
 177   8   9    6 C     3.82806534580E-01  2.73162785495E-01 -4.01117519997E-01
 178   8  10    6 C    -9.88824800029E-02  1.74280305492E-01 -2.16075945423E-01
 179   8  11    6 C     1.74280305492E-01 -2.16075945423E-01 -9.88824800029E-02
 180   8  12    6 C    -3.90356250915E-01  3.25719694508E-01  2.26837214505E-01
 181   8  13    6 C     3.90356250915E-01  2.16075945423E-01 -3.82806534580E-01
 182   8  14    6 C     9.88824800029E-02 -2.26837214505E-01 -1.17193465420E-01
 183   8  15    6 C     4.01117519997E-01  2.83924054577E-01 -3.25719694508E-01
 184   8  16    6 C     1.09643749085E-01 -2.73162785495E-01 -1.74280305492E-01
 185   8  17    6 C     2.16075945423E-01 -3.82806534580E-01  3.90356250915E-01
 186   8  18    6 C    -3.82806534580E-01  3.90356250915E-01  2.16075945423E-01
 187   8  19    6 C    -2.73162785495E-01 -1.74280305492E-01  1.09643749085E-01
 188   8  20    6 C    -1.17193465420E-01  9.88824800029E-02 -2.26837214505E-01
 189   8  21    6 C    -2.26837214505E-01 -1.17193465420E-01  9.88824800029E-02
 190   8  22    6 C    -3.25719694508E-01  4.01117519997E-01  2.83924054577E-01
 191   8  23    6 C     2.83924054577E-01 -3.25719694508E-01  4.01117519997E-01
 192   8  24    6 C    -1.74280305492E-01  1.09643749085E-01 -2.73162785495E-01

 193   9   1    6 C    -2.70001736037E-01 -6.47139175793E-02  1.40600465947E-01
 194   9   2    6 C     2.94685616474E-01 -4.10602201984E-01  3.59399534053E-01
 195   9   3    6 C    -2.29998263963E-01 -8.93977980157E-02  2.05287818458E-01
 196   9   4    6 C     2.05314383526E-01 -4.35286082421E-01  2.94712181542E-01
 197   9   5    6 C     1.40600465947E-01 -2.70001736037E-01 -6.47139175793E-02
 198   9   6    6 C    -6.47139175793E-02  1.40600465947E-01 -2.70001736037E-01
 199   9   7    6 C     2.94712181542E-01  2.05314383526E-01 -4.35286082421E-01
 200   9   8    6 C    -4.10602201984E-01  3.59399534053E-01  2.94685616474E-01
 201   9   9    6 C     3.59399534053E-01  2.94685616474E-01 -4.10602201984E-01
 202   9  10    6 C    -8.93977980157E-02  2.05287818458E-01 -2.29998263963E-01
 203   9  11    6 C     2.05287818458E-01 -2.29998263963E-01 -8.93977980157E-02
 204   9  12    6 C    -4.35286082421E-01  2.94712181542E-01  2.05314383526E-01
 205   9  13    6 C     4.35286082421E-01  2.29998263963E-01 -3.59399534053E-01
 206   9  14    6 C     8.93977980157E-02 -2.05314383526E-01 -1.40600465947E-01
 207   9  15    6 C     4.10602201984E-01  2.70001736037E-01 -2.94712181542E-01
 208   9  16    6 C     6.47139175793E-02 -2.94685616474E-01 -2.05287818458E-01
 209   9  17    6 C     2.29998263963E-01 -3.59399534053E-01  4.35286082421E-01
 210   9  18    6 C    -3.59399534053E-01  4.35286082421E-01  2.29998263963E-01
 211   9  19    6 C    -2.94685616474E-01 -2.05287818458E-01  6.47139175793E-02
 212   9  20    6 C    -1.40600465947E-01  8.93977980157E-02 -2.05314383526E-01
 213   9  21    6 C    -2.05314383526E-01 -1.40600465947E-01  8.93977980157E-02
 214   9  22    6 C    -2.94712181542E-01  4.10602201984E-01  2.70001736037E-01
 215   9  23    6 C     2.70001736037E-01 -2.94712181542E-01  4.10602201984E-01
 216   9  24    6 C    -2.05287818458E-01  6.47139175793E-02 -2.94685616474E-01

 217  10   1    6 C    -2.99561547221E-01 -4.94023106010E-02  1.33264649481E-01
 218  10   2    6 C     3.17333039918E-01 -4.32826196702E-01  3.66735350519E-01
 219  10   3    6 C    -2.00438452779E-01 -6.71738032980E-02  2.50159236620E-01
 220  10   4    6 C     1.82666960082E-01 -4.50597689399E-01  2.49840763380E-01
 221  10   5    6 C     1.33264649481E-01 -2.99561547221E-01 -4.94023106010E-02
 222  10   6    6 C    -4.94023106010E-02  1.33264649481E-01 -2.99561547221E-01
 223  10   7    6 C     2.49840763380E-01  1.82666960082E-01 -4.50597689399E-01
 224  10   8    6 C    -4.32826196702E-01  3.66735350519E-01  3.17333039918E-01
 225  10   9    6 C     3.66735350519E-01  3.17333039918E-01 -4.32826196702E-01
 226  10  10    6 C    -6.71738032980E-02  2.50159236620E-01 -2.00438452779E-01
 227  10  11    6 C     2.50159236620E-01 -2.00438452779E-01 -6.71738032980E-02
 228  10  12    6 C    -4.50597689399E-01  2.49840763380E-01  1.82666960082E-01
 229  10  13    6 C     4.50597689399E-01  2.00438452779E-01 -3.66735350519E-01
 230  10  14    6 C     6.71738032980E-02 -1.82666960082E-01 -1.33264649481E-01
 231  10  15    6 C     4.32826196702E-01  2.99561547221E-01 -2.49840763380E-01
 232  10  16    6 C     4.94023106010E-02 -3.17333039918E-01 -2.50159236620E-01
 233  10  17    6 C     2.00438452779E-01 -3.66735350519E-01  4.50597689399E-01
 234  10  18    6 C    -3.66735350519E-01  4.50597689399E-01  2.00438452779E-01
 235  10  19    6 C    -3.17333039918E-01 -2.50159236620E-01  4.94023106010E-02
 236  10  20    6 C    -1.33264649481E-01  6.71738032980E-02 -1.82666960082E-01
 237  10  21    6 C    -1.82666960082E-01 -1.33264649481E-01  6.71738032980E-02
 238  10  22    6 C    -2.49840763380E-01  4.32826196702E-01  2.99561547221E-01
 239  10  23    6 C     2.99561547221E-01 -2.49840763380E-01  4.32826196702E-01
 240  10  24    6 C    -2.50159236620E-01  4.94023106010E-02 -3.17333039918E-01

 241  11   1    6 C    -3.58137446610E-01 -1.23056636601E-01  7.87170077429E-02
 242  11   2    6 C     2.98226355657E-01 -4.36854454353E-01  4.21282992257E-01
 243  11   3    6 C    -1.41862553390E-01 -6.31455456473E-02  2.35080810009E-01
 244  11   4    6 C     2.01773644343E-01 -3.76943363400E-01  2.64919189991E-01
 245  11   5    6 C     7.87170077429E-02 -3.58137446610E-01 -1.23056636601E-01
 246  11   6    6 C    -1.23056636601E-01  7.87170077429E-02 -3.58137446610E-01
 247  11   7    6 C     2.64919189991E-01  2.01773644343E-01 -3.76943363400E-01
 248  11   8    6 C    -4.36854454353E-01  4.21282992257E-01  2.98226355657E-01
 249  11   9    6 C     4.21282992257E-01  2.98226355657E-01 -4.36854454353E-01
 250  11  10    6 C    -6.31455456473E-02  2.35080810009E-01 -1.41862553390E-01
 251  11  11    6 C     2.35080810009E-01 -1.41862553390E-01 -6.31455456473E-02
 252  11  12    6 C    -3.76943363400E-01  2.64919189991E-01  2.01773644343E-01
 253  11  13    6 C     3.76943363400E-01  1.41862553390E-01 -4.21282992257E-01
 254  11  14    6 C     6.31455456473E-02 -2.01773644343E-01 -7.87170077429E-02
 255  11  15    6 C     4.36854454353E-01  3.58137446610E-01 -2.64919189991E-01
 256  11  16    6 C     1.23056636600E-01 -2.98226355657E-01 -2.35080810009E-01
 257  11  17    6 C     1.41862553390E-01 -4.21282992257E-01  3.76943363400E-01
 258  11  18    6 C    -4.21282992257E-01  3.76943363400E-01  1.41862553390E-01
 259  11  19    6 C    -2.98226355657E-01 -2.35080810009E-01  1.23056636600E-01
 260  11  20    6 C    -7.87170077429E-02  6.31455456473E-02 -2.01773644343E-01
 261  11  21    6 C    -2.01773644343E-01 -7.87170077429E-02  6.31455456473E-02
 262  11  22    6 C    -2.64919189991E-01  4.36854454353E-01  3.58137446610E-01
 263  11  23    6 C     3.58137446610E-01 -2.64919189991E-01  4.36854454353E-01
 264  11  24    6 C    -2.35080810009E-01  1.23056636600E-01 -2.98226355657E-01

 265  12   1    6 C    -3.44453495313E-01 -7.82720858530E-02  1.02000167658E-01
 266  12   2    6 C     3.19727746489E-01 -4.46453662972E-01  3.97999832342E-01
 267  12   3    6 C    -1.55546504687E-01 -5.35463370282E-02  2.66181409460E-01
 268  12   4    6 C     1.80272253511E-01 -4.21727914147E-01  2.33818590540E-01
 269  12   5    6 C     1.02000167658E-01 -3.44453495313E-01 -7.82720858530E-02
 270  12   6    6 C    -7.82720858530E-02  1.02000167658E-01 -3.44453495313E-01
 271  12   7    6 C     2.33818590540E-01  1.80272253511E-01 -4.21727914147E-01
 272  12   8    6 C    -4.46453662972E-01  3.97999832342E-01  3.19727746489E-01
 273  12   9    6 C     3.97999832342E-01  3.19727746489E-01 -4.46453662972E-01
 274  12  10    6 C    -5.35463370282E-02  2.66181409460E-01 -1.55546504687E-01
 275  12  11    6 C     2.66181409460E-01 -1.55546504687E-01 -5.35463370282E-02
 276  12  12    6 C    -4.21727914147E-01  2.33818590540E-01  1.80272253511E-01
 277  12  13    6 C     4.21727914147E-01  1.55546504687E-01 -3.97999832342E-01
 278  12  14    6 C     5.35463370282E-02 -1.80272253511E-01 -1.02000167658E-01
 279  12  15    6 C     4.46453662972E-01  3.44453495313E-01 -2.33818590540E-01
 280  12  16    6 C     7.82720858530E-02 -3.19727746489E-01 -2.66181409460E-01
 281  12  17    6 C     1.55546504687E-01 -3.97999832342E-01  4.21727914147E-01
 282  12  18    6 C    -3.97999832342E-01  4.21727914147E-01  1.55546504687E-01
 283  12  19    6 C    -3.19727746489E-01 -2.66181409460E-01  7.82720858530E-02
 284  12  20    6 C    -1.02000167658E-01  5.35463370282E-02 -1.80272253511E-01
 285  12  21    6 C    -1.80272253511E-01 -1.02000167658E-01  5.35463370282E-02
 286  12  22    6 C    -2.33818590540E-01  4.46453662972E-01  3.44453495313E-01
 287  12  23    6 C     3.44453495313E-01 -2.33818590540E-01  4.46453662972E-01
 288  12  24    6 C    -2.66181409460E-01  7.82720858530E-02 -3.19727746489E-01

 289  13   1    6 C    -4.50428513560E-01 -7.50452824550E-02  7.22444104264E-02
 290  13   2    6 C     3.52710307119E-01  4.77327076014E-01  4.27755589574E-01
 291  13   3    6 C    -4.95714864400E-02  2.26729239864E-02  3.75383231105E-01
 292  13   4    6 C     1.47289692881E-01 -4.24954717545E-01  1.24616768895E-01
 293  13   5    6 C     7.22444104264E-02 -4.50428513560E-01 -7.50452824550E-02
 294  13   6    6 C    -7.50452824550E-02  7.22444104264E-02 -4.50428513560E-01
 295  13   7    6 C     1.24616768895E-01  1.47289692881E-01 -4.24954717545E-01
 296  13   8    6 C     4.77327076014E-01  4.27755589574E-01  3.52710307119E-01
 297  13   9    6 C     4.27755589574E-01  3.52710307119E-01  4.77327076014E-01
 298  13  10    6 C     2.26729239864E-02  3.75383231105E-01 -4.95714864400E-02
 299  13  11    6 C     3.75383231105E-01 -4.95714864400E-02  2.26729239864E-02
 300  13  12    6 C    -4.24954717545E-01  1.24616768895E-01  1.47289692881E-01
 301  13  13    6 C     4.24954717545E-01  4.95714864400E-02 -4.27755589574E-01
 302  13  14    6 C    -2.26729239864E-02 -1.47289692881E-01 -7.22444104264E-02
 303  13  15    6 C    -4.77327076014E-01  4.50428513560E-01 -1.24616768895E-01
 304  13  16    6 C     7.50452824550E-02 -3.52710307119E-01 -3.75383231105E-01
 305  13  17    6 C     4.95714864400E-02 -4.27755589574E-01  4.24954717545E-01
 306  13  18    6 C    -4.27755589574E-01  4.24954717545E-01  4.95714864400E-02
 307  13  19    6 C    -3.52710307119E-01 -3.75383231105E-01  7.50452824550E-02
 308  13  20    6 C    -7.22444104264E-02 -2.26729239864E-02 -1.47289692881E-01
 309  13  21    6 C    -1.47289692881E-01 -7.22444104264E-02 -2.26729239864E-02
 310  13  22    6 C    -1.24616768895E-01 -4.77327076014E-01  4.50428513560E-01
 311  13  23    6 C     4.50428513560E-01 -1.24616768895E-01 -4.77327076014E-01
 312  13  24    6 C    -3.75383231105E-01  7.50452824550E-02 -3.52710307119E-01

 313  14   1    6 C    -3.28627991697E-01 -1.38465196314E-01  8.64092827909E-02
 314  14   2    6 C     2.75125520895E-01 -4.15037274488E-01  4.13590717209E-01
 315  14   3    6 C    -1.71372008303E-01 -8.49627255119E-02  1.90162795383E-01
 316  14   4    6 C     2.24874479105E-01 -3.61534803686E-01  3.09837204617E-01
 317  14   5    6 C     8.64092827909E-02 -3.28627991697E-01 -1.38465196314E-01
 318  14   6    6 C    -1.38465196314E-01  8.64092827909E-02 -3.28627991697E-01
 319  14   7    6 C     3.09837204617E-01  2.24874479105E-01 -3.61534803686E-01
 320  14   8    6 C    -4.15037274488E-01  4.13590717209E-01  2.75125520895E-01
 321  14   9    6 C     4.13590717209E-01  2.75125520895E-01 -4.15037274488E-01
 322  14  10    6 C    -8.49627255119E-02  1.90162795383E-01 -1.71372008303E-01
 323  14  11    6 C     1.90162795383E-01 -1.71372008303E-01 -8.49627255119E-02
 324  14  12    6 C    -3.61534803686E-01  3.09837204617E-01  2.24874479105E-01
 325  14  13    6 C     3.61534803686E-01  1.71372008303E-01 -4.13590717209E-01
 326  14  14    6 C     8.49627255119E-02 -2.24874479105E-01 -8.64092827909E-02
 327  14  15    6 C     4.15037274488E-01  3.28627991697E-01 -3.09837204617E-01
 328  14  16    6 C     1.38465196314E-01 -2.75125520895E-01 -1.90162795383E-01
 329  14  17    6 C     1.71372008303E-01 -4.13590717209E-01  3.61534803686E-01
 330  14  18    6 C    -4.13590717209E-01  3.61534803686E-01  1.71372008303E-01
 331  14  19    6 C    -2.75125520895E-01 -1.90162795383E-01  1.38465196314E-01
 332  14  20    6 C    -8.64092827909E-02  8.49627255119E-02 -2.24874479105E-01
 333  14  21    6 C    -2.24874479105E-01 -8.64092827909E-02  8.49627255119E-02
 334  14  22    6 C    -3.09837204617E-01  4.15037274488E-01  3.28627991697E-01
 335  14  23    6 C     3.28627991697E-01 -3.09837204617E-01  4.15037274488E-01
 336  14  24    6 C    -1.90162795383E-01  1.38465196314E-01 -2.75125520895E-01

 337  15   1    1 H    -4.84948720494E-01 -9.70272459040E-02  6.02109660278E-02
 338  15   2    1 H     3.42761788068E-01  4.54840313478E-01  4.39789033972E-01
 339  15   3    1 H    -1.50512795056E-02  4.51596865222E-02  3.87921474590E-01
 340  15   4    1 H     1.57238211932E-01 -4.02972754096E-01  1.12078525410E-01
 341  15   5    1 H     6.02109660278E-02 -4.84948720494E-01 -9.70272459040E-02
 342  15   6    1 H    -9.70272459040E-02  6.02109660278E-02 -4.84948720494E-01
 343  15   7    1 H     1.12078525410E-01  1.57238211932E-01 -4.02972754096E-01
 344  15   8    1 H     4.54840313478E-01  4.39789033972E-01  3.42761788068E-01
 345  15   9    1 H     4.39789033972E-01  3.42761788068E-01  4.54840313478E-01
 346  15  10    1 H     4.51596865222E-02  3.87921474590E-01 -1.50512795056E-02
 347  15  11    1 H     3.87921474590E-01 -1.50512795056E-02  4.51596865222E-02
 348  15  12    1 H    -4.02972754096E-01  1.12078525410E-01  1.57238211932E-01
 349  15  13    1 H     4.02972754096E-01  1.50512795056E-02 -4.39789033972E-01
 350  15  14    1 H    -4.51596865222E-02 -1.57238211932E-01 -6.02109660278E-02
 351  15  15    1 H    -4.54840313478E-01  4.84948720494E-01 -1.12078525410E-01
 352  15  16    1 H     9.70272459040E-02 -3.42761788068E-01 -3.87921474590E-01
 353  15  17    1 H     1.50512795056E-02 -4.39789033972E-01  4.02972754096E-01
 354  15  18    1 H    -4.39789033972E-01  4.02972754096E-01  1.50512795056E-02
 355  15  19    1 H    -3.42761788068E-01 -3.87921474590E-01  9.70272459040E-02
 356  15  20    1 H    -6.02109660278E-02 -4.51596865222E-02 -1.57238211932E-01
 357  15  21    1 H    -1.57238211932E-01 -6.02109660278E-02 -4.51596865222E-02
 358  15  22    1 H    -1.12078525410E-01 -4.54840313478E-01  4.84948720494E-01
 359  15  23    1 H     4.84948720494E-01 -1.12078525410E-01 -4.54840313478E-01
 360  15  24    1 H    -3.87921474590E-01  9.70272459040E-02 -3.42761788068E-01

 361  16   1    6 C    -3.62661083738E-01 -1.90322659411E-02  1.02752840205E-01
 362  16   2    6 C     3.78214893854E-01 -4.65413923943E-01  3.97247159795E-01
 363  16   3    6 C    -1.37338916262E-01 -3.45860760573E-02  3.43628817797E-01
 364  16   4    6 C     1.21785106146E-01 -4.80967734059E-01  1.56371182203E-01
 365  16   5    6 C     1.02752840205E-01 -3.62661083738E-01 -1.90322659411E-02
 366  16   6    6 C    -1.90322659411E-02  1.02752840205E-01 -3.62661083738E-01
 367  16   7    6 C     1.56371182203E-01  1.21785106146E-01 -4.80967734059E-01
 368  16   8    6 C    -4.65413923943E-01  3.97247159795E-01  3.78214893854E-01
 369  16   9    6 C     3.97247159795E-01  3.78214893854E-01 -4.65413923943E-01
 370  16  10    6 C    -3.45860760573E-02  3.43628817797E-01 -1.37338916262E-01
 371  16  11    6 C     3.43628817797E-01 -1.37338916262E-01 -3.45860760573E-02
 372  16  12    6 C    -4.80967734059E-01  1.56371182203E-01  1.21785106146E-01
 373  16  13    6 C     4.80967734059E-01  1.37338916262E-01 -3.97247159795E-01
 374  16  14    6 C     3.45860760573E-02 -1.21785106146E-01 -1.02752840205E-01
 375  16  15    6 C     4.65413923943E-01  3.62661083738E-01 -1.56371182203E-01
 376  16  16    6 C     1.90322659411E-02 -3.78214893854E-01 -3.43628817797E-01
 377  16  17    6 C     1.37338916262E-01 -3.97247159795E-01  4.80967734059E-01
 378  16  18    6 C    -3.97247159795E-01  4.80967734059E-01  1.37338916262E-01
 379  16  19    6 C    -3.78214893854E-01 -3.43628817797E-01  1.90322659411E-02
 380  16  20    6 C    -1.02752840205E-01  3.45860760573E-02 -1.21785106146E-01
 381  16  21    6 C    -1.21785106146E-01 -1.02752840205E-01  3.45860760573E-02
 382  16  22    6 C    -1.56371182203E-01  4.65413923943E-01  3.62661083738E-01
 383  16  23    6 C     3.62661083738E-01 -1.56371182203E-01  4.65413923943E-01
 384  16  24    6 C    -3.43628817797E-01  1.90322659411E-02 -3.78214893854E-01

 385  17   1    6 C    -4.36998172719E-01 -3.15804292269E-02  8.11304974335E-02
 386  17   2    6 C     3.87289073340E-01  4.81871329847E-01  4.18869502567E-01
 387  17   3    6 C    -6.30018272808E-02  1.81286701527E-02  4.05417743492E-01
 388  17   4    6 C     1.12710926660E-01 -4.68419570773E-01  9.45822565077E-02
 389  17   5    6 C     8.11304974335E-02 -4.36998172719E-01 -3.15804292269E-02
 390  17   6    6 C    -3.15804292269E-02  8.11304974335E-02 -4.36998172719E-01
 391  17   7    6 C     9.45822565077E-02  1.12710926660E-01 -4.68419570773E-01
 392  17   8    6 C     4.81871329847E-01  4.18869502567E-01  3.87289073340E-01
 393  17   9    6 C     4.18869502567E-01  3.87289073340E-01  4.81871329847E-01
 394  17  10    6 C     1.81286701527E-02  4.05417743492E-01 -6.30018272808E-02
 395  17  11    6 C     4.05417743492E-01 -6.30018272808E-02  1.81286701527E-02
 396  17  12    6 C    -4.68419570773E-01  9.45822565077E-02  1.12710926660E-01
 397  17  13    6 C     4.68419570773E-01  6.30018272808E-02 -4.18869502567E-01
 398  17  14    6 C    -1.81286701527E-02 -1.12710926660E-01 -8.11304974335E-02
 399  17  15    6 C    -4.81871329847E-01  4.36998172719E-01 -9.45822565077E-02
 400  17  16    6 C     3.15804292269E-02 -3.87289073340E-01 -4.05417743492E-01
 401  17  17    6 C     6.30018272808E-02 -4.18869502567E-01  4.68419570773E-01
 402  17  18    6 C    -4.18869502567E-01  4.68419570773E-01  6.30018272808E-02
 403  17  19    6 C    -3.87289073340E-01 -4.05417743492E-01  3.15804292269E-02
 404  17  20    6 C    -8.11304974335E-02 -1.81286701527E-02 -1.12710926660E-01
 405  17  21    6 C    -1.12710926660E-01 -8.11304974335E-02 -1.81286701527E-02
 406  17  22    6 C    -9.45822565077E-02 -4.81871329847E-01  4.36998172719E-01
 407  17  23    6 C     4.36998172719E-01 -9.45822565077E-02 -4.81871329847E-01
 408  17  24    6 C    -4.05417743492E-01  3.15804292269E-02 -3.87289073340E-01

 409  18   1    1 H    -4.31433034308E-01 -1.23253857829E-01  7.42129382716E-02
 410  18   2    1 H     3.02533203900E-01  4.94354027420E-01  4.25787061728E-01
 411  18   3    1 H    -6.85669656918E-02  5.64597257980E-03  3.08179176479E-01
 412  18   4    1 H     1.97466796100E-01 -3.76746142171E-01  1.91820823521E-01
 413  18   5    1 H     7.42129382716E-02 -4.31433034308E-01 -1.23253857829E-01
 414  18   6    1 H    -1.23253857829E-01  7.42129382716E-02 -4.31433034308E-01
 415  18   7    1 H     1.91820823521E-01  1.97466796100E-01 -3.76746142171E-01
 416  18   8    1 H     4.94354027420E-01  4.25787061728E-01  3.02533203900E-01
 417  18   9    1 H     4.25787061728E-01  3.02533203900E-01  4.94354027420E-01
 418  18  10    1 H     5.64597257980E-03  3.08179176479E-01 -6.85669656918E-02
 419  18  11    1 H     3.08179176479E-01 -6.85669656918E-02  5.64597257980E-03
 420  18  12    1 H    -3.76746142171E-01  1.91820823521E-01  1.97466796100E-01
 421  18  13    1 H     3.76746142171E-01  6.85669656918E-02 -4.25787061728E-01
 422  18  14    1 H    -5.64597257980E-03 -1.97466796100E-01 -7.42129382716E-02
 423  18  15    1 H    -4.94354027420E-01  4.31433034308E-01 -1.91820823521E-01
 424  18  16    1 H     1.23253857829E-01 -3.02533203900E-01 -3.08179176479E-01
 425  18  17    1 H     6.85669656918E-02 -4.25787061728E-01  3.76746142171E-01
 426  18  18    1 H    -4.25787061728E-01  3.76746142171E-01  6.85669656918E-02
 427  18  19    1 H    -3.02533203900E-01 -3.08179176479E-01  1.23253857829E-01
 428  18  20    1 H    -7.42129382716E-02 -5.64597257980E-03 -1.97466796100E-01
 429  18  21    1 H    -1.97466796100E-01 -7.42129382716E-02 -5.64597257980E-03
 430  18  22    1 H    -1.91820823521E-01 -4.94354027420E-01  4.31433034308E-01
 431  18  23    1 H     4.31433034308E-01 -1.91820823521E-01 -4.94354027420E-01
 432  18  24    1 H    -3.08179176479E-01  1.23253857829E-01 -3.02533203900E-01

 433  19   1    6 C    -4.20534306254E-01 -8.99387333999E-02  7.94684868412E-02
 434  19   2    6 C     3.30592779759E-01  4.99997206905E-01  4.20531513159E-01
 435  19   3    6 C    -7.94656937463E-02  2.79309490003E-06  3.30595572854E-01
 436  19   4    6 C     1.69407220241E-01 -4.10061266600E-01  1.69404427146E-01
 437  19   5    6 C     7.94684868412E-02 -4.20534306254E-01 -8.99387333999E-02
 438  19   6    6 C    -8.99387333999E-02  7.94684868412E-02 -4.20534306254E-01
 439  19   7    6 C     1.69404427146E-01  1.69407220241E-01 -4.10061266600E-01
 440  19   8    6 C     4.99997206905E-01  4.20531513159E-01  3.30592779759E-01
 441  19   9    6 C     4.20531513159E-01  3.30592779759E-01  4.99997206905E-01
 442  19  10    6 C     2.79309490003E-06  3.30595572854E-01 -7.94656937463E-02
 443  19  11    6 C     3.30595572854E-01 -7.94656937463E-02  2.79309490003E-06
 444  19  12    6 C    -4.10061266600E-01  1.69404427146E-01  1.69407220241E-01
 445  19  13    6 C     4.10061266600E-01  7.94656937463E-02 -4.20531513159E-01
 446  19  14    6 C    -2.79309490001E-06 -1.69407220241E-01 -7.94684868412E-02
 447  19  15    6 C    -4.99997206905E-01  4.20534306254E-01 -1.69404427146E-01
 448  19  16    6 C     8.99387333999E-02 -3.30592779759E-01 -3.30595572854E-01
 449  19  17    6 C     7.94656937463E-02 -4.20531513159E-01  4.10061266600E-01
 450  19  18    6 C    -4.20531513159E-01  4.10061266600E-01  7.94656937463E-02
 451  19  19    6 C    -3.30592779759E-01 -3.30595572854E-01  8.99387333999E-02
 452  19  20    6 C    -7.94684868412E-02 -2.79309490001E-06 -1.69407220241E-01
 453  19  21    6 C    -1.69407220241E-01 -7.94684868412E-02 -2.79309490001E-06
 454  19  22    6 C    -1.69404427146E-01 -4.99997206905E-01  4.20534306254E-01
 455  19  23    6 C     4.20534306254E-01 -1.69404427146E-01 -4.99997206905E-01
 456  19  24    6 C    -3.30595572854E-01  8.99387333999E-02 -3.30592779759E-01

 457  20   1    6 C    -3.76018555273E-01 -6.23211181038E-02  9.46140514812E-02
 458  20   2    6 C     3.43064830415E-01 -4.70632606754E-01  4.05385948519E-01
 459  20   3    6 C    -1.23981444727E-01 -2.93673932456E-02  3.13697437169E-01
 460  20   4    6 C     1.56935169585E-01 -4.37678881896E-01  1.86302562831E-01
 461  20   5    6 C     9.46140514812E-02 -3.76018555273E-01 -6.23211181038E-02
 462  20   6    6 C    -6.23211181038E-02  9.46140514812E-02 -3.76018555273E-01
 463  20   7    6 C     1.86302562831E-01  1.56935169585E-01 -4.37678881896E-01
 464  20   8    6 C    -4.70632606754E-01  4.05385948519E-01  3.43064830415E-01
 465  20   9    6 C     4.05385948519E-01  3.43064830415E-01 -4.70632606754E-01
 466  20  10    6 C    -2.93673932456E-02  3.13697437169E-01 -1.23981444727E-01
 467  20  11    6 C     3.13697437169E-01 -1.23981444727E-01 -2.93673932456E-02
 468  20  12    6 C    -4.37678881896E-01  1.86302562831E-01  1.56935169585E-01
 469  20  13    6 C     4.37678881896E-01  1.23981444727E-01 -4.05385948519E-01
 470  20  14    6 C     2.93673932456E-02 -1.56935169585E-01 -9.46140514812E-02
 471  20  15    6 C     4.70632606754E-01  3.76018555273E-01 -1.86302562831E-01
 472  20  16    6 C     6.23211181038E-02 -3.43064830415E-01 -3.13697437169E-01
 473  20  17    6 C     1.23981444727E-01 -4.05385948519E-01  4.37678881896E-01
 474  20  18    6 C    -4.05385948519E-01  4.37678881896E-01  1.23981444727E-01
 475  20  19    6 C    -3.43064830415E-01 -3.13697437169E-01  6.23211181038E-02
 476  20  20    6 C    -9.46140514812E-02  2.93673932456E-02 -1.56935169585E-01
 477  20  21    6 C    -1.56935169585E-01 -9.46140514812E-02  2.93673932456E-02
 478  20  22    6 C    -1.86302562831E-01  4.70632606754E-01  3.76018555273E-01
 479  20  23    6 C     3.76018555273E-01 -1.86302562831E-01  4.70632606754E-01
 480  20  24    6 C    -3.13697437169E-01  6.23211181038E-02 -3.43064830415E-01

 481  21   1    6 C    -3.92415831722E-01 -3.86805203790E-03  9.67769990268E-02
 482  21   2    6 C     3.99354948935E-01 -4.89192830749E-01  4.03223000973E-01
 483  21   3    6 C    -1.07584168277E-01 -1.08071692507E-02  3.88547779685E-01
 484  21   4    6 C     1.00645051065E-01 -4.96131947962E-01  1.11452220315E-01
 485  21   5    6 C     9.67769990268E-02 -3.92415831722E-01 -3.86805203790E-03
 486  21   6    6 C    -3.86805203790E-03  9.67769990268E-02 -3.92415831722E-01
 487  21   7    6 C     1.11452220315E-01  1.00645051065E-01 -4.96131947962E-01
 488  21   8    6 C    -4.89192830749E-01  4.03223000973E-01  3.99354948935E-01
 489  21   9    6 C     4.03223000973E-01  3.99354948935E-01 -4.89192830749E-01
 490  21  10    6 C    -1.08071692507E-02  3.88547779685E-01 -1.07584168277E-01
 491  21  11    6 C     3.88547779685E-01 -1.07584168277E-01 -1.08071692507E-02
 492  21  12    6 C    -4.96131947962E-01  1.11452220315E-01  1.00645051065E-01
 493  21  13    6 C     4.96131947962E-01  1.07584168278E-01 -4.03223000973E-01
 494  21  14    6 C     1.08071692507E-02 -1.00645051065E-01 -9.67769990268E-02
 495  21  15    6 C     4.89192830749E-01  3.92415831722E-01 -1.11452220315E-01
 496  21  16    6 C     3.86805203790E-03 -3.99354948935E-01 -3.88547779685E-01
 497  21  17    6 C     1.07584168278E-01 -4.03223000973E-01  4.96131947962E-01
 498  21  18    6 C    -4.03223000973E-01  4.96131947962E-01  1.07584168278E-01
 499  21  19    6 C    -3.99354948935E-01 -3.88547779685E-01  3.86805203790E-03
 500  21  20    6 C    -9.67769990268E-02  1.08071692507E-02 -1.00645051065E-01
 501  21  21    6 C    -1.00645051065E-01 -9.67769990268E-02  1.08071692507E-02
 502  21  22    6 C    -1.11452220315E-01  4.89192830749E-01  3.92415831722E-01
 503  21  23    6 C     3.92415831722E-01 -1.11452220315E-01  4.89192830749E-01
 504  21  24    6 C    -3.88547779685E-01  3.86805203790E-03 -3.99354948935E-01

 505  22   1    5 B    -4.70021060405E-01 -1.49810502315E-02  7.45938225015E-02
 506  22   2    5 B     4.10425127267E-01  4.55385117093E-01  4.25406177498E-01
 507  22   3    5 B    -2.99789395946E-02  4.46148829069E-02  4.55040010174E-01
 508  22   4    5 B     8.95748727330E-02 -4.85018949769E-01  4.49599898261E-02
 509  22   5    5 B     7.45938225015E-02 -4.70021060405E-01 -1.49810502315E-02
 510  22   6    5 B    -1.49810502315E-02  7.45938225015E-02 -4.70021060405E-01
 511  22   7    5 B     4.49599898261E-02  8.95748727330E-02 -4.85018949769E-01
 512  22   8    5 B     4.55385117093E-01  4.25406177498E-01  4.10425127267E-01
 513  22   9    5 B     4.25406177498E-01  4.10425127267E-01  4.55385117093E-01
 514  22  10    5 B     4.46148829069E-02  4.55040010174E-01 -2.99789395946E-02
 515  22  11    5 B     4.55040010174E-01 -2.99789395946E-02  4.46148829069E-02
 516  22  12    5 B    -4.85018949769E-01  4.49599898261E-02  8.95748727330E-02
 517  22  13    5 B     4.85018949769E-01  2.99789395946E-02 -4.25406177499E-01
 518  22  14    5 B    -4.46148829069E-02 -8.95748727330E-02 -7.45938225015E-02
 519  22  15    5 B    -4.55385117093E-01  4.70021060405E-01 -4.49599898261E-02
 520  22  16    5 B     1.49810502315E-02 -4.10425127267E-01 -4.55040010174E-01
 521  22  17    5 B     2.99789395946E-02 -4.25406177499E-01  4.85018949769E-01
 522  22  18    5 B    -4.25406177499E-01  4.85018949769E-01  2.99789395946E-02
 523  22  19    5 B    -4.10425127267E-01 -4.55040010174E-01  1.49810502315E-02
 524  22  20    5 B    -7.45938225015E-02 -4.46148829069E-02 -8.95748727330E-02
 525  22  21    5 B    -8.95748727330E-02 -7.45938225015E-02 -4.46148829069E-02
 526  22  22    5 B    -4.49599898261E-02 -4.55385117093E-01  4.70021060405E-01
 527  22  23    5 B     4.70021060405E-01 -4.49599898261E-02 -4.55385117093E-01
 528  22  24    5 B    -4.55040010174E-01  1.49810502315E-02 -4.10425127267E-01

 529  23   1    6 C    -1.25000000000E-01  1.25000000000E-01 -2.50000000000E-01
 530  23   2    6 C    -3.75000000000E-01  3.75000000000E-01  2.50000000000E-01
 531  23   3    6 C    -2.50000000000E-01 -1.25000000000E-01  1.25000000000E-01
 532  23   4    6 C     1.25000000000E-01 -2.50000000000E-01 -1.25000000000E-01
 533  23   5    6 C     2.50000000000E-01 -3.75000000000E-01  3.75000000000E-01
 534  23   6    6 C     3.75000000000E-01  2.50000000000E-01 -3.75000000000E-01

 NUMBER OF SYMMETRY OPERATORS         :   24
 *******************************************************************************
 * GEOMETRY EDITING - INPUT COORDINATES ARE GIVEN IN ANGSTROM         
 *******************************************************************************

 GEOMETRY NOW FULLY CONSISTENT WITH THE GROUP
 INFORMATION **** NEW DEFAULT **** FINALRUN 4 FOR GEOMETRY OPTIMIZATIONS
 INFORMATION **** NEW DEFAULT **** OPTGEOM OPTIMIZES BOTH ATOMIC COORDINATES AND CELL PARAMETERS
 INFORMATION **** NEW DEFAULT **** TOL. ON ATOMIC DISP TO REDEFINE REF. GEOMETRY: 0.8 Angs
 INFORMATION **** NEW DEFAULT **** N POINTS TO REDEFINE REF. GEOMETRY: N OF OPT DEGS OF FREEDOM
 INFORMATION **** NEW DEFAULT **** TOL. ON ENERGY TO REDEFINE REF. GEOMETRY: 10**-3*(5*N. ATOMS)
 INFORMATION **** FULLOPTG **** FULL OPTIMIZATION (ATOMS AND CELL PARAMETERS)
 INFORMATION **** TOLDEG **** MODIFY CONVERGENCE CRITERIUM FOR RMS GRADIENT  3.000000E-04
 INFORMATION **** TOLDEX ****  CONVERGENCE CRITERIUM FOR RMS DISPLACEMENT MODIFIED  1.200000E-04
 INFORMATION **** MAXCYCLE ****   MAXIMUM NUMBER OF OPTIMIZATION CYCLES        1600

 IMPORTANT INFORMATION:
 THE COORDINATE SYSTEM ADOPTED IN THE OPTIMIZATION IS NOT IN
 GENERAL HOMOGENEOUS UNITS. FOR THIS REASON THE GRADIENT AND 
 HESSIAN MATRIX IN TERMS OF THIS SYSTEM ARE GIVEN WITHOUT
 UNITS. FOR MORE DETAILS SEE THE MANUAL.

 *******************************************************************************
 COMBINED CELL/ATOM OPTIMIZATION CONTROL

 INITIAL TRUST RADIUS         0.50000 MAXIMUM TRUST RADIUS               4.00000
 MAXIMUM GRADIENT COMPONENT   0.00005 MAXIMUM DISPLACEMENT COMPONENT     0.00018
 R.M.S. OF GRADIENT COMPONENT 0.00003 R.M.S. OF DISPLACEMENT COMPONENTS  0.00012
 THRESHOLD ON ENERGY CHANGE 0.100E-06 EXTRAPOLATING POLYNOMIAL ORDER           2
 MAXIMUM ALLOWED NUMBER OF STEPS 1600 SORTING OF ENERGY POINTS:               NO
 ANALYTICAL  GRADIENT                 HESSIAN UPDATING                      BFGS
 STEP SIZE NUMERICAL GRADIENT 0.00100
 INITIAL HESSIAN MATRIX: SCHLEGEL MODEL 2
 *******************************************************************************


 GCALCO - MAX INDICES DIRECT LATTICE VECTOR    14    14    14
 NO.OF VECTORS CREATED 6999 STARS  122 RMAX   769.64462 BOHR

 GEOMETRY FOR WAVE FUNCTION - DIMENSIONALITY OF THE SYSTEM    3
 (NON PERIODIC DIRECTION: LATTICE PARAMETER FORMALLY SET TO 500)
 *******************************************************************************
 LATTICE PARAMETERS (ANGSTROMS AND DEGREES) - BOHR = 0.5291772083 ANGSTROM
 PRIMITIVE CELL - CENTRING CODE 6/0 VOLUME= 40230.839428 - DENSITY  0.180 g/cm^3
         A              B              C           ALPHA      BETA       GAMMA 
    37.38754898    37.38754898    37.38754898   109.471221 109.471221 109.471221
 *******************************************************************************
 ATOMS IN THE ASYMMETRIC UNIT   23 - ATOMS IN THE UNIT CELL:  534
     ATOM                 X/A                 Y/B                 Z/C    
 *******************************************************************************
      1 T   8 O     4.851630583063E-01 -4.450419009770E-02  4.957953442940E-02
      2 F   8 O     4.059162754729E-01  4.355835238769E-01  4.504204655706E-01
      3 F   8 O     1.483694169370E-02  6.441647612310E-02  4.703327515960E-01
      4 F   8 O     9.408372452710E-02 -4.554958099023E-01  2.966724840400E-02
      5 F   8 O     4.957953442940E-02  4.851630583063E-01 -4.450419009770E-02
      6 F   8 O    -4.450419009770E-02  4.957953442940E-02  4.851630583063E-01
      7 F   8 O     2.966724840400E-02  9.408372452710E-02 -4.554958099023E-01
      8 F   8 O     4.355835238769E-01  4.504204655706E-01  4.059162754729E-01
      9 F   8 O     4.504204655706E-01  4.059162754729E-01  4.355835238769E-01
     10 F   8 O     6.441647612310E-02  4.703327515960E-01  1.483694169370E-02
     11 F   8 O     4.703327515960E-01  1.483694169370E-02  6.441647612310E-02
     12 F   8 O    -4.554958099023E-01  2.966724840400E-02  9.408372452710E-02
     13 F   8 O     4.554958099023E-01 -1.483694169370E-02 -4.504204655706E-01
     14 F   8 O    -6.441647612310E-02 -9.408372452710E-02 -4.957953442940E-02
     15 F   8 O    -4.355835238769E-01 -4.851630583063E-01 -2.966724840400E-02
     16 F   8 O     4.450419009770E-02 -4.059162754729E-01 -4.703327515960E-01
     17 F   8 O    -1.483694169370E-02 -4.504204655706E-01  4.554958099023E-01
     18 F   8 O    -4.504204655706E-01  4.554958099023E-01 -1.483694169370E-02
     19 F   8 O    -4.059162754729E-01 -4.703327515960E-01  4.450419009770E-02
     20 F   8 O    -4.957953442940E-02 -6.441647612310E-02 -9.408372452710E-02
     21 F   8 O    -9.408372452710E-02 -4.957953442940E-02 -6.441647612310E-02
     22 F   8 O    -2.966724840400E-02 -4.355835238769E-01 -4.851630583063E-01
     23 F   8 O    -4.851630583063E-01 -2.966724840400E-02 -4.355835238769E-01
     24 F   8 O    -4.703327515960E-01  4.450419009770E-02 -4.059162754729E-01
     25 T   1 H    -3.405839232793E-01 -1.736593146319E-01  6.854253684024E-02
     26 F   1 H     2.577981485279E-01 -4.091264601195E-01  4.314574631598E-01
     27 F   1 H    -1.594160767207E-01 -9.087353988050E-02  1.669246086474E-01
     28 F   1 H     2.422018514721E-01 -3.263406853681E-01  3.330753913526E-01
     29 F   1 H     6.854253684024E-02 -3.405839232793E-01 -1.736593146319E-01
     30 F   1 H    -1.736593146319E-01  6.854253684024E-02 -3.405839232793E-01
     31 F   1 H     3.330753913526E-01  2.422018514721E-01 -3.263406853681E-01
     32 F   1 H    -4.091264601195E-01  4.314574631598E-01  2.577981485279E-01
     33 F   1 H     4.314574631598E-01  2.577981485279E-01 -4.091264601195E-01
     34 F   1 H    -9.087353988050E-02  1.669246086474E-01 -1.594160767207E-01
     35 F   1 H     1.669246086474E-01 -1.594160767207E-01 -9.087353988050E-02
     36 F   1 H    -3.263406853681E-01  3.330753913526E-01  2.422018514721E-01
     37 F   1 H     3.263406853681E-01  1.594160767207E-01 -4.314574631598E-01
     38 F   1 H     9.087353988050E-02 -2.422018514721E-01 -6.854253684024E-02
     39 F   1 H     4.091264601195E-01  3.405839232793E-01 -3.330753913526E-01
     40 F   1 H     1.736593146319E-01 -2.577981485279E-01 -1.669246086474E-01
     41 F   1 H     1.594160767207E-01 -4.314574631598E-01  3.263406853681E-01
     42 F   1 H    -4.314574631598E-01  3.263406853681E-01  1.594160767207E-01
     43 F   1 H    -2.577981485279E-01 -1.669246086474E-01  1.736593146319E-01
     44 F   1 H    -6.854253684024E-02  9.087353988050E-02 -2.422018514721E-01
     45 F   1 H    -2.422018514721E-01 -6.854253684024E-02  9.087353988050E-02
     46 F   1 H    -3.330753913526E-01  4.091264601195E-01  3.405839232793E-01
     47 F   1 H     3.405839232793E-01 -3.330753913526E-01  4.091264601195E-01
     48 F   1 H    -1.669246086474E-01  1.736593146319E-01 -2.577981485279E-01
     49 T   1 H    -3.285441613569E-01  2.648544766100E-03  1.133059650064E-01
     50 F   1 H     3.893425797597E-01 -4.418501263633E-01  3.866940349936E-01
     51 F   1 H    -1.714558386431E-01 -5.814987363670E-02  3.311927061230E-01
     52 F   1 H     1.106574202403E-01  4.973514552339E-01  1.688072938770E-01
     53 F   1 H     1.133059650064E-01 -3.285441613569E-01  2.648544766100E-03
     54 F   1 H     2.648544766100E-03  1.133059650064E-01 -3.285441613569E-01
     55 F   1 H     1.688072938770E-01  1.106574202403E-01  4.973514552339E-01
     56 F   1 H    -4.418501263633E-01  3.866940349936E-01  3.893425797597E-01
     57 F   1 H     3.866940349936E-01  3.893425797597E-01 -4.418501263633E-01
     58 F   1 H    -5.814987363670E-02  3.311927061230E-01 -1.714558386431E-01
     59 F   1 H     3.311927061230E-01 -1.714558386431E-01 -5.814987363670E-02
     60 F   1 H     4.973514552339E-01  1.688072938770E-01  1.106574202403E-01
     61 F   1 H    -4.973514552339E-01  1.714558386431E-01 -3.866940349936E-01
     62 F   1 H     5.814987363670E-02 -1.106574202403E-01 -1.133059650064E-01
     63 F   1 H     4.418501263633E-01  3.285441613569E-01 -1.688072938770E-01
     64 F   1 H    -2.648544766100E-03 -3.893425797597E-01 -3.311927061230E-01
     65 F   1 H     1.714558386431E-01 -3.866940349936E-01 -4.973514552339E-01
     66 F   1 H    -3.866940349936E-01 -4.973514552339E-01  1.714558386431E-01
     67 F   1 H    -3.893425797597E-01 -3.311927061230E-01 -2.648544766100E-03
     68 F   1 H    -1.133059650064E-01  5.814987363670E-02 -1.106574202403E-01
     69 F   1 H    -1.106574202403E-01 -1.133059650064E-01  5.814987363670E-02
     70 F   1 H    -1.688072938770E-01  4.418501263633E-01  3.285441613569E-01
     71 F   1 H     3.285441613569E-01 -1.688072938770E-01  4.418501263633E-01
     72 F   1 H    -3.311927061230E-01 -2.648544766100E-03 -3.893425797597E-01
     73 T   1 H    -3.926109793753E-01 -1.463628135042E-01  5.360629297585E-02
     74 F   1 H     3.000308935199E-01 -4.462172723512E-01  4.463937070242E-01
     75 F   1 H    -1.073890206246E-01 -5.378272764880E-02  2.462481658712E-01
     76 F   1 H     1.999691064801E-01 -3.536371864958E-01  2.537518341288E-01
     77 F   1 H     5.360629297585E-02 -3.926109793753E-01 -1.463628135042E-01
     78 F   1 H    -1.463628135042E-01  5.360629297585E-02 -3.926109793753E-01
     79 F   1 H     2.537518341288E-01  1.999691064801E-01 -3.536371864958E-01
     80 F   1 H    -4.462172723512E-01  4.463937070241E-01  3.000308935199E-01
     81 F   1 H     4.463937070241E-01  3.000308935199E-01 -4.462172723512E-01
     82 F   1 H    -5.378272764880E-02  2.462481658712E-01 -1.073890206246E-01
     83 F   1 H     2.462481658712E-01 -1.073890206246E-01 -5.378272764880E-02
     84 F   1 H    -3.536371864958E-01  2.537518341288E-01  1.999691064801E-01
     85 F   1 H     3.536371864958E-01  1.073890206246E-01 -4.463937070242E-01
     86 F   1 H     5.378272764880E-02 -1.999691064801E-01 -5.360629297585E-02
     87 F   1 H     4.462172723512E-01  3.926109793754E-01 -2.537518341288E-01
     88 F   1 H     1.463628135042E-01 -3.000308935199E-01 -2.462481658712E-01
     89 F   1 H     1.073890206246E-01 -4.463937070242E-01  3.536371864958E-01
     90 F   1 H    -4.463937070242E-01  3.536371864958E-01  1.073890206246E-01
     91 F   1 H    -3.000308935199E-01 -2.462481658712E-01  1.463628135042E-01
     92 F   1 H    -5.360629297585E-02  5.378272764880E-02 -1.999691064800E-01
     93 F   1 H    -1.999691064801E-01 -5.360629297585E-02  5.378272764880E-02
     94 F   1 H    -2.537518341288E-01  4.462172723512E-01  3.926109793754E-01
     95 F   1 H     3.926109793754E-01 -2.537518341288E-01  4.462172723512E-01
     96 F   1 H    -2.462481658712E-01  1.463628135042E-01 -3.000308935199E-01
     97 T   1 H    -2.354799524028E-01 -4.187568379710E-02  1.659597022183E-01
     98 F   1 H     2.921646139846E-01 -4.014396546211E-01  3.340402977817E-01
     99 F   1 H    -2.645200475972E-01 -9.856034537890E-02  1.936042686057E-01
    100 F   1 H     2.078353860154E-01 -4.581243162029E-01  3.063957313943E-01
    101 F   1 H     1.659597022183E-01 -2.354799524028E-01 -4.187568379710E-02
    102 F   1 H    -4.187568379710E-02  1.659597022183E-01 -2.354799524028E-01
    103 F   1 H     3.063957313943E-01  2.078353860154E-01 -4.581243162029E-01
    104 F   1 H    -4.014396546211E-01  3.340402977817E-01  2.921646139846E-01
    105 F   1 H     3.340402977817E-01  2.921646139846E-01 -4.014396546211E-01
    106 F   1 H    -9.856034537890E-02  1.936042686057E-01 -2.645200475972E-01
    107 F   1 H     1.936042686057E-01 -2.645200475972E-01 -9.856034537890E-02
    108 F   1 H    -4.581243162029E-01  3.063957313943E-01  2.078353860154E-01
    109 F   1 H     4.581243162029E-01  2.645200475972E-01 -3.340402977817E-01
    110 F   1 H     9.856034537890E-02 -2.078353860154E-01 -1.659597022183E-01
    111 F   1 H     4.014396546211E-01  2.354799524028E-01 -3.063957313943E-01
    112 F   1 H     4.187568379710E-02 -2.921646139846E-01 -1.936042686057E-01
    113 F   1 H     2.645200475972E-01 -3.340402977817E-01  4.581243162029E-01
    114 F   1 H    -3.340402977817E-01  4.581243162029E-01  2.645200475972E-01
    115 F   1 H    -2.921646139846E-01 -1.936042686057E-01  4.187568379710E-02
    116 F   1 H    -1.659597022183E-01  9.856034537890E-02 -2.078353860154E-01
    117 F   1 H    -2.078353860154E-01 -1.659597022183E-01  9.856034537890E-02
    118 F   1 H    -3.063957313943E-01  4.014396546211E-01  2.354799524028E-01
    119 F   1 H     2.354799524028E-01 -3.063957313943E-01  4.014396546211E-01
    120 F   1 H    -1.936042686057E-01  4.187568379710E-02 -2.921646139846E-01
    121 T   1 H    -3.813781510620E-01  3.002520220270E-02  1.037715792713E-01
    122 F   1 H     4.262536229314E-01 -4.851497303333E-01  3.962284207287E-01
    123 F   1 H    -1.186218489380E-01 -1.485026966670E-02  4.114033532647E-01
    124 F   1 H     7.374637706860E-02  4.699747977973E-01  8.859664673530E-02
    125 F   1 H     1.037715792713E-01 -3.813781510620E-01  3.002520220270E-02
    126 F   1 H     3.002520220270E-02  1.037715792713E-01 -3.813781510620E-01
    127 F   1 H     8.859664673530E-02  7.374637706860E-02  4.699747977973E-01
    128 F   1 H    -4.851497303333E-01  3.962284207287E-01  4.262536229314E-01
    129 F   1 H     3.962284207287E-01  4.262536229314E-01 -4.851497303333E-01
    130 F   1 H    -1.485026966670E-02  4.114033532647E-01 -1.186218489380E-01
    131 F   1 H     4.114033532647E-01 -1.186218489380E-01 -1.485026966670E-02
    132 F   1 H     4.699747977973E-01  8.859664673530E-02  7.374637706860E-02
    133 F   1 H    -4.699747977973E-01  1.186218489380E-01 -3.962284207287E-01
    134 F   1 H     1.485026966670E-02 -7.374637706860E-02 -1.037715792713E-01
    135 F   1 H     4.851497303333E-01  3.813781510620E-01 -8.859664673530E-02
    136 F   1 H    -3.002520220270E-02 -4.262536229314E-01 -4.114033532647E-01
    137 F   1 H     1.186218489380E-01 -3.962284207287E-01 -4.699747977973E-01
    138 F   1 H    -3.962284207287E-01 -4.699747977973E-01  1.186218489380E-01
    139 F   1 H    -4.262536229314E-01 -4.114033532647E-01 -3.002520220270E-02
    140 F   1 H    -1.037715792713E-01  1.485026966670E-02 -7.374637706860E-02
    141 F   1 H    -7.374637706860E-02 -1.037715792713E-01  1.485026966670E-02
    142 F   1 H    -8.859664673530E-02  4.851497303333E-01  3.813781510620E-01
    143 F   1 H     3.813781510620E-01 -8.859664673530E-02  4.851497303333E-01
    144 F   1 H    -4.114033532647E-01 -3.002520220270E-02 -4.262536229314E-01
    145 T   1 H    -2.879196826799E-01 -1.454772767230E-02  1.531974748058E-01
    146 F   1 H     3.322547975219E-01 -4.411171574857E-01  3.468025251942E-01
    147 F   1 H    -2.120803173201E-01 -5.888284251430E-02  2.733719550076E-01
    148 F   1 H     1.677452024781E-01 -4.854522723277E-01  2.266280449924E-01
    149 F   1 H     1.531974748058E-01 -2.879196826799E-01 -1.454772767230E-02
    150 F   1 H    -1.454772767230E-02  1.531974748058E-01 -2.879196826799E-01
    151 F   1 H     2.266280449924E-01  1.677452024781E-01 -4.854522723277E-01
    152 F   1 H    -4.411171574857E-01  3.468025251942E-01  3.322547975219E-01
    153 F   1 H     3.468025251942E-01  3.322547975219E-01 -4.411171574857E-01
    154 F   1 H    -5.888284251430E-02  2.733719550076E-01 -2.120803173201E-01
    155 F   1 H     2.733719550076E-01 -2.120803173201E-01 -5.888284251430E-02
    156 F   1 H    -4.854522723277E-01  2.266280449924E-01  1.677452024781E-01
    157 F   1 H     4.854522723277E-01  2.120803173201E-01 -3.468025251942E-01
    158 F   1 H     5.888284251430E-02 -1.677452024781E-01 -1.531974748058E-01
    159 F   1 H     4.411171574857E-01  2.879196826799E-01 -2.266280449924E-01
    160 F   1 H     1.454772767230E-02 -3.322547975219E-01 -2.733719550076E-01
    161 F   1 H     2.120803173201E-01 -3.468025251942E-01  4.854522723277E-01
    162 F   1 H    -3.468025251942E-01  4.854522723277E-01  2.120803173201E-01
    163 F   1 H    -3.322547975219E-01 -2.733719550076E-01  1.454772767230E-02
    164 F   1 H    -1.531974748058E-01  5.888284251430E-02 -1.677452024781E-01
    165 F   1 H    -1.677452024781E-01 -1.531974748058E-01  5.888284251430E-02
    166 F   1 H    -2.266280449924E-01  4.411171574857E-01  2.879196826799E-01
    167 F   1 H     2.879196826799E-01 -2.266280449924E-01  4.411171574857E-01
    168 F   1 H    -2.733719550076E-01  1.454772767230E-02 -3.322547975219E-01
    169 T   6 C    -2.839240545767E-01 -1.096437490849E-01  1.171934654203E-01
    170 F   6 C     2.731627854948E-01 -4.011175199971E-01  3.828065345797E-01
    171 F   6 C    -2.160759454233E-01 -9.888248000290E-02  1.742803054918E-01
    172 F   6 C     2.268372145052E-01 -3.903562509151E-01  3.257196945082E-01
    173 F   6 C     1.171934654203E-01 -2.839240545767E-01 -1.096437490849E-01
    174 F   6 C    -1.096437490849E-01  1.171934654203E-01 -2.839240545767E-01
    175 F   6 C     3.257196945081E-01  2.268372145052E-01 -3.903562509151E-01
    176 F   6 C    -4.011175199971E-01  3.828065345797E-01  2.731627854947E-01
    177 F   6 C     3.828065345797E-01  2.731627854947E-01 -4.011175199971E-01
    178 F   6 C    -9.888248000290E-02  1.742803054918E-01 -2.160759454233E-01
    179 F   6 C     1.742803054918E-01 -2.160759454233E-01 -9.888248000290E-02
    180 F   6 C    -3.903562509151E-01  3.257196945081E-01  2.268372145052E-01
    181 F   6 C     3.903562509151E-01  2.160759454233E-01 -3.828065345797E-01
    182 F   6 C     9.888248000290E-02 -2.268372145053E-01 -1.171934654203E-01
    183 F   6 C     4.011175199971E-01  2.839240545768E-01 -3.257196945082E-01
    184 F   6 C     1.096437490849E-01 -2.731627854947E-01 -1.742803054918E-01
    185 F   6 C     2.160759454232E-01 -3.828065345797E-01  3.903562509151E-01
    186 F   6 C    -3.828065345797E-01  3.903562509151E-01  2.160759454233E-01
    187 F   6 C    -2.731627854947E-01 -1.742803054918E-01  1.096437490849E-01
    188 F   6 C    -1.171934654203E-01  9.888248000290E-02 -2.268372145053E-01
    189 F   6 C    -2.268372145053E-01 -1.171934654204E-01  9.888248000290E-02
    190 F   6 C    -3.257196945082E-01  4.011175199971E-01  2.839240545768E-01
    191 F   6 C     2.839240545768E-01 -3.257196945082E-01  4.011175199971E-01
    192 F   6 C    -1.742803054918E-01  1.096437490849E-01 -2.731627854947E-01
    193 T   6 C    -2.700017360372E-01 -6.471391757930E-02  1.406004659471E-01
    194 F   6 C     2.946856164736E-01 -4.106022019843E-01  3.593995340529E-01
    195 F   6 C    -2.299982639628E-01 -8.939779801570E-02  2.052878184579E-01
    196 F   6 C     2.053143835264E-01 -4.352860824207E-01  2.947121815421E-01
    197 F   6 C     1.406004659471E-01 -2.700017360372E-01 -6.471391757930E-02
    198 F   6 C    -6.471391757930E-02  1.406004659471E-01 -2.700017360372E-01
    199 F   6 C     2.947121815421E-01  2.053143835264E-01 -4.352860824207E-01
    200 F   6 C    -4.106022019843E-01  3.593995340529E-01  2.946856164736E-01
    201 F   6 C     3.593995340529E-01  2.946856164736E-01 -4.106022019843E-01
    202 F   6 C    -8.939779801570E-02  2.052878184579E-01 -2.299982639628E-01
    203 F   6 C     2.052878184579E-01 -2.299982639628E-01 -8.939779801570E-02
    204 F   6 C    -4.352860824207E-01  2.947121815421E-01  2.053143835264E-01
    205 F   6 C     4.352860824207E-01  2.299982639628E-01 -3.593995340529E-01
    206 F   6 C     8.939779801570E-02 -2.053143835264E-01 -1.406004659471E-01
    207 F   6 C     4.106022019843E-01  2.700017360372E-01 -2.947121815421E-01
    208 F   6 C     6.471391757930E-02 -2.946856164736E-01 -2.052878184579E-01
    209 F   6 C     2.299982639628E-01 -3.593995340529E-01  4.352860824207E-01
    210 F   6 C    -3.593995340529E-01  4.352860824207E-01  2.299982639628E-01
    211 F   6 C    -2.946856164736E-01 -2.052878184579E-01  6.471391757930E-02
    212 F   6 C    -1.406004659471E-01  8.939779801570E-02 -2.053143835264E-01
    213 F   6 C    -2.053143835264E-01 -1.406004659471E-01  8.939779801570E-02
    214 F   6 C    -2.947121815421E-01  4.106022019843E-01  2.700017360372E-01
    215 F   6 C     2.700017360372E-01 -2.947121815421E-01  4.106022019843E-01
    216 F   6 C    -2.052878184579E-01  6.471391757930E-02 -2.946856164736E-01
    217 T   6 C    -2.995615472213E-01 -4.940231060100E-02  1.332646494806E-01
    218 F   6 C     3.173330399184E-01 -4.328261967020E-01  3.667353505193E-01
    219 F   6 C    -2.004384527786E-01 -6.717380329800E-02  2.501592366204E-01
    220 F   6 C     1.826669600817E-01 -4.505976893990E-01  2.498407633796E-01
    221 F   6 C     1.332646494807E-01 -2.995615472213E-01 -4.940231060100E-02
    222 F   6 C    -4.940231060100E-02  1.332646494806E-01 -2.995615472213E-01
    223 F   6 C     2.498407633796E-01  1.826669600817E-01 -4.505976893990E-01
    224 F   6 C    -4.328261967020E-01  3.667353505194E-01  3.173330399184E-01
    225 F   6 C     3.667353505194E-01  3.173330399183E-01 -4.328261967020E-01
    226 F   6 C    -6.717380329800E-02  2.501592366204E-01 -2.004384527786E-01
    227 F   6 C     2.501592366203E-01 -2.004384527786E-01 -6.717380329800E-02
    228 F   6 C    -4.505976893990E-01  2.498407633796E-01  1.826669600816E-01
    229 F   6 C     4.505976893990E-01  2.004384527787E-01 -3.667353505194E-01
    230 F   6 C     6.717380329800E-02 -1.826669600817E-01 -1.332646494807E-01
    231 F   6 C     4.328261967020E-01  2.995615472213E-01 -2.498407633796E-01
    232 F   6 C     4.940231060100E-02 -3.173330399183E-01 -2.501592366204E-01
    233 F   6 C     2.004384527786E-01 -3.667353505194E-01  4.505976893990E-01
    234 F   6 C    -3.667353505194E-01  4.505976893990E-01  2.004384527786E-01
    235 F   6 C    -3.173330399183E-01 -2.501592366204E-01  4.940231060100E-02
    236 F   6 C    -1.332646494807E-01  6.717380329800E-02 -1.826669600817E-01
    237 F   6 C    -1.826669600817E-01 -1.332646494807E-01  6.717380329800E-02
    238 F   6 C    -2.498407633797E-01  4.328261967020E-01  2.995615472213E-01
    239 F   6 C     2.995615472213E-01 -2.498407633796E-01  4.328261967020E-01
    240 F   6 C    -2.501592366204E-01  4.940231060100E-02 -3.173330399183E-01
    241 T   6 C    -3.581374466098E-01 -1.230566366005E-01  7.871700774289E-02
    242 F   6 C     2.982263556566E-01 -4.368544543527E-01  4.212829922571E-01
    243 F   6 C    -1.418625533902E-01 -6.314554564730E-02  2.350808100093E-01
    244 F   6 C     2.017736443434E-01 -3.769433633995E-01  2.649191899907E-01
    245 F   6 C     7.871700774289E-02 -3.581374466098E-01 -1.230566366005E-01
    246 F   6 C    -1.230566366005E-01  7.871700774289E-02 -3.581374466098E-01
    247 F   6 C     2.649191899907E-01  2.017736443434E-01 -3.769433633995E-01
    248 F   6 C    -4.368544543527E-01  4.212829922571E-01  2.982263556566E-01
    249 F   6 C     4.212829922571E-01  2.982263556566E-01 -4.368544543527E-01
    250 F   6 C    -6.314554564730E-02  2.350808100093E-01 -1.418625533902E-01
    251 F   6 C     2.350808100093E-01 -1.418625533902E-01 -6.314554564730E-02
    252 F   6 C    -3.769433633995E-01  2.649191899907E-01  2.017736443434E-01
    253 F   6 C     3.769433633995E-01  1.418625533902E-01 -4.212829922571E-01
    254 F   6 C     6.314554564730E-02 -2.017736443434E-01 -7.871700774289E-02
    255 F   6 C     4.368544543527E-01  3.581374466098E-01 -2.649191899907E-01
    256 F   6 C     1.230566366005E-01 -2.982263556566E-01 -2.350808100093E-01
    257 F   6 C     1.418625533902E-01 -4.212829922571E-01  3.769433633995E-01
    258 F   6 C    -4.212829922571E-01  3.769433633995E-01  1.418625533902E-01
    259 F   6 C    -2.982263556566E-01 -2.350808100093E-01  1.230566366005E-01
    260 F   6 C    -7.871700774289E-02  6.314554564730E-02 -2.017736443434E-01
    261 F   6 C    -2.017736443434E-01 -7.871700774289E-02  6.314554564730E-02
    262 F   6 C    -2.649191899907E-01  4.368544543527E-01  3.581374466098E-01
    263 F   6 C     3.581374466098E-01 -2.649191899907E-01  4.368544543527E-01
    264 F   6 C    -2.350808100093E-01  1.230566366005E-01 -2.982263556566E-01
    265 T   6 C    -3.444534953133E-01 -7.827208585300E-02  1.020001676585E-01
    266 F   6 C     3.197277464885E-01 -4.464536629718E-01  3.979998323415E-01
    267 F   6 C    -1.555465046867E-01 -5.354633702820E-02  2.661814094603E-01
    268 F   6 C     1.802722535115E-01 -4.217279141470E-01  2.338185905397E-01
    269 F   6 C     1.020001676585E-01 -3.444534953133E-01 -7.827208585300E-02
    270 F   6 C    -7.827208585300E-02  1.020001676585E-01 -3.444534953133E-01
    271 F   6 C     2.338185905397E-01  1.802722535115E-01 -4.217279141470E-01
    272 F   6 C    -4.464536629718E-01  3.979998323415E-01  3.197277464885E-01
    273 F   6 C     3.979998323415E-01  3.197277464885E-01 -4.464536629718E-01
    274 F   6 C    -5.354633702820E-02  2.661814094603E-01 -1.555465046867E-01
    275 F   6 C     2.661814094603E-01 -1.555465046867E-01 -5.354633702820E-02
    276 F   6 C    -4.217279141470E-01  2.338185905397E-01  1.802722535115E-01
    277 F   6 C     4.217279141470E-01  1.555465046867E-01 -3.979998323415E-01
    278 F   6 C     5.354633702820E-02 -1.802722535115E-01 -1.020001676585E-01
    279 F   6 C     4.464536629718E-01  3.444534953133E-01 -2.338185905397E-01
    280 F   6 C     7.827208585300E-02 -3.197277464885E-01 -2.661814094603E-01
    281 F   6 C     1.555465046867E-01 -3.979998323415E-01  4.217279141470E-01
    282 F   6 C    -3.979998323415E-01  4.217279141470E-01  1.555465046867E-01
    283 F   6 C    -3.197277464885E-01 -2.661814094603E-01  7.827208585300E-02
    284 F   6 C    -1.020001676585E-01  5.354633702820E-02 -1.802722535115E-01
    285 F   6 C    -1.802722535115E-01 -1.020001676585E-01  5.354633702820E-02
    286 F   6 C    -2.338185905397E-01  4.464536629718E-01  3.444534953133E-01
    287 F   6 C     3.444534953133E-01 -2.338185905397E-01  4.464536629718E-01
    288 F   6 C    -2.661814094603E-01  7.827208585300E-02 -3.197277464885E-01
    289 T   6 C    -4.504285135600E-01 -7.504528245500E-02  7.224441042640E-02
    290 F   6 C     3.527103071186E-01  4.773270760136E-01  4.277555895736E-01
    291 F   6 C    -4.957148644000E-02  2.267292398640E-02  3.753832311050E-01
    292 F   6 C     1.472896928814E-01 -4.249547175450E-01  1.246167688950E-01
    293 F   6 C     7.224441042640E-02 -4.504285135600E-01 -7.504528245500E-02
    294 F   6 C    -7.504528245500E-02  7.224441042640E-02 -4.504285135600E-01
    295 F   6 C     1.246167688950E-01  1.472896928814E-01 -4.249547175450E-01
    296 F   6 C     4.773270760136E-01  4.277555895736E-01  3.527103071186E-01
    297 F   6 C     4.277555895736E-01  3.527103071186E-01  4.773270760136E-01
    298 F   6 C     2.267292398640E-02  3.753832311050E-01 -4.957148644000E-02
    299 F   6 C     3.753832311050E-01 -4.957148644000E-02  2.267292398640E-02
    300 F   6 C    -4.249547175450E-01  1.246167688950E-01  1.472896928814E-01
    301 F   6 C     4.249547175450E-01  4.957148644000E-02 -4.277555895736E-01
    302 F   6 C    -2.267292398640E-02 -1.472896928814E-01 -7.224441042640E-02
    303 F   6 C    -4.773270760136E-01  4.504285135600E-01 -1.246167688950E-01
    304 F   6 C     7.504528245500E-02 -3.527103071186E-01 -3.753832311050E-01
    305 F   6 C     4.957148644000E-02 -4.277555895736E-01  4.249547175450E-01
    306 F   6 C    -4.277555895736E-01  4.249547175450E-01  4.957148644000E-02
    307 F   6 C    -3.527103071186E-01 -3.753832311050E-01  7.504528245500E-02
    308 F   6 C    -7.224441042640E-02 -2.267292398640E-02 -1.472896928814E-01
    309 F   6 C    -1.472896928814E-01 -7.224441042640E-02 -2.267292398640E-02
    310 F   6 C    -1.246167688950E-01 -4.773270760136E-01  4.504285135600E-01
    311 F   6 C     4.504285135600E-01 -1.246167688950E-01 -4.773270760136E-01
    312 F   6 C    -3.753832311050E-01  7.504528245500E-02 -3.527103071186E-01
    313 T   6 C    -3.286279916972E-01 -1.384651963145E-01  8.640928279091E-02
    314 F   6 C     2.751255208946E-01 -4.150372744881E-01  4.135907172091E-01
    315 F   6 C    -1.713720083028E-01 -8.496272551190E-02  1.901627953827E-01
    316 F   6 C     2.248744791054E-01 -3.615348036855E-01  3.098372046173E-01
    317 F   6 C     8.640928279091E-02 -3.286279916972E-01 -1.384651963145E-01
    318 F   6 C    -1.384651963145E-01  8.640928279091E-02 -3.286279916972E-01
    319 F   6 C     3.098372046173E-01  2.248744791054E-01 -3.615348036855E-01
    320 F   6 C    -4.150372744881E-01  4.135907172091E-01  2.751255208946E-01
    321 F   6 C     4.135907172091E-01  2.751255208946E-01 -4.150372744881E-01
    322 F   6 C    -8.496272551190E-02  1.901627953827E-01 -1.713720083028E-01
    323 F   6 C     1.901627953827E-01 -1.713720083028E-01 -8.496272551190E-02
    324 F   6 C    -3.615348036855E-01  3.098372046173E-01  2.248744791054E-01
    325 F   6 C     3.615348036855E-01  1.713720083028E-01 -4.135907172091E-01
    326 F   6 C     8.496272551190E-02 -2.248744791054E-01 -8.640928279091E-02
    327 F   6 C     4.150372744881E-01  3.286279916972E-01 -3.098372046173E-01
    328 F   6 C     1.384651963145E-01 -2.751255208946E-01 -1.901627953827E-01
    329 F   6 C     1.713720083028E-01 -4.135907172091E-01  3.615348036855E-01
    330 F   6 C    -4.135907172091E-01  3.615348036855E-01  1.713720083028E-01
    331 F   6 C    -2.751255208946E-01 -1.901627953827E-01  1.384651963145E-01
    332 F   6 C    -8.640928279091E-02  8.496272551190E-02 -2.248744791054E-01
[...]
  321     6 C     9.580662215367E+00  1.552632796668E+01  2.221488172705E+00
  322     6 C     2.221488172705E+00 -9.580662215367E+00  5.951252999011E+00
  323     6 C    -9.580662215367E+00  5.951252999011E+00  2.221488172705E+00
  324     6 C    -2.221488172705E+00  1.189691875033E+01  1.552632796668E+01
  325     6 C     8.517302310143E+00  1.669004348186E+01 -1.158128267480E+00
  326     6 C    -8.517302310143E+00  4.787537483836E+00 -1.158128267480E+00
  327     6 C     1.296027865555E+01  1.669004348186E+01  1.158128267480E+00
  328     6 C    -1.296027865555E+01  4.787537483836E+00  1.158128267480E+00
  329     6 C     1.669004348186E+01 -1.158128267480E+00  8.517302310143E+00
  330     6 C    -1.158128267480E+00  8.517302310143E+00  1.669004348186E+01
  331     6 C     4.787537483836E+00  1.158128267480E+00 -1.296027865555E+01
  332     6 C    -1.158128267480E+00 -8.517302310143E+00  4.787537483836E+00
  333     6 C     4.787537483836E+00 -1.158128267480E+00 -8.517302310143E+00
  334     6 C     1.158128267480E+00  1.296027865555E+01  1.669004348186E+01
  335     6 C     1.669004348186E+01  1.158128267480E+00  1.296027865555E+01
  336     6 C     1.158128267480E+00 -1.296027865555E+01  4.787537483836E+00
  337     1 H     9.660701210419E+00 -7.003544857063E+00 -1.381471615580E+01
  338     1 H     1.181687975528E+01  7.003544857063E+00  7.662864809895E+00
  339     1 H     9.660701210419E+00  7.003544857063E+00 -7.662864809895E+00
  340     1 H    -9.660701210419E+00  1.447403610863E+01 -7.662864809895E+00
  341     1 H    -1.381471615580E+01  9.660701210419E+00 -7.003544857063E+00
  342     1 H    -7.003544857063E+00 -1.381471615580E+01  9.660701210419E+00
  343     1 H    -7.662864809895E+00 -9.660701210419E+00  1.447403610863E+01
  344     1 H     7.003544857063E+00  7.662864809895E+00  1.181687975528E+01
  345     1 H     7.662864809895E+00  1.181687975528E+01  7.003544857063E+00
  346     1 H     7.003544857063E+00 -7.662864809895E+00  9.660701210419E+00
  347     1 H    -7.662864809895E+00  9.660701210419E+00  7.003544857063E+00
  348     1 H     1.447403610863E+01 -7.662864809895E+00 -9.660701210419E+00
  349     1 H     3.735245625784E+00  2.039949169327E+01 -3.075925672953E+00
  350     1 H    -3.735245625784E+00  1.078089272428E+00 -3.075925672953E+00
  351     1 H    -3.735245625784E+00 -1.078089272428E+00 -1.840165529274E+01
  352     1 H    -1.774233533991E+01  1.078089272428E+00  3.075925672953E+00
  353     1 H     2.039949169327E+01 -3.075925672953E+00  3.735245625784E+00
  354     1 H    -3.075925672953E+00  3.735245625784E+00  2.039949169327E+01
  355     1 H     1.078089272428E+00  3.075925672953E+00 -1.774233533991E+01
  356     1 H    -3.075925672953E+00 -3.735245625784E+00  1.078089272428E+00
  357     1 H     1.078089272428E+00 -3.075925672953E+00 -3.735245625784E+00
  358     1 H    -1.840165529274E+01 -3.735245625784E+00 -1.078089272428E+00
  359     1 H    -1.078089272428E+00 -1.840165529274E+01 -3.735245625784E+00
  360     1 H     3.075925672953E+00 -1.774233533991E+01  1.078089272428E+00
  361     6 C     9.585315015616E+00 -5.174595160405E+00 -1.041361236261E+01
  362     6 C     1.189226595008E+01  5.174595160405E+00  1.106396860308E+01
  363     6 C     9.585315015616E+00  5.174595160405E+00 -1.106396860308E+01
  364     6 C     1.189226595008E+01 -5.174595160405E+00  1.041361236261E+01
  365     6 C    -1.041361236261E+01  9.585315015616E+00 -5.174595160405E+00
  366     6 C    -5.174595160405E+00 -1.041361236261E+01  9.585315015616E+00
  367     6 C     1.041361236261E+01  1.189226595008E+01 -5.174595160405E+00
  368     6 C     5.174595160405E+00  1.106396860308E+01  1.189226595008E+01
  369     6 C     1.106396860308E+01  1.189226595008E+01  5.174595160405E+00
  370     6 C     5.174595160405E+00 -1.106396860308E+01  9.585315015616E+00
  371     6 C    -1.106396860308E+01  9.585315015616E+00  5.174595160405E+00
  372     6 C    -5.174595160405E+00  1.041361236261E+01  1.189226595008E+01
  373     6 C     5.564195322442E+00  2.032410549846E+01  3.251781202365E-01
  374     6 C    -5.564195322442E+00  1.153475467232E+00  3.251781202365E-01
  375     6 C    -5.564195322442E+00 -1.153475467232E+00  2.115240284546E+01
  376     6 C    -1.591338564325E+01  1.153475467232E+00 -3.251781202365E-01
  377     6 C     2.032410549846E+01  3.251781202365E-01  5.564195322442E+00
  378     6 C     3.251781202365E-01  5.564195322442E+00  2.032410549846E+01
  379     6 C     1.153475467232E+00 -3.251781202365E-01 -1.591338564325E+01
  380     6 C     3.251781202365E-01 -5.564195322442E+00  1.153475467232E+00
  381     6 C     1.153475467232E+00  3.251781202365E-01 -5.564195322442E+00
  382     6 C     2.115240284546E+01 -5.564195322442E+00 -1.153475467232E+00
  383     6 C    -1.153475467232E+00  2.115240284546E+01 -5.564195322442E+00
  384     6 C    -3.251781202365E-01 -1.591338564325E+01  1.153475467232E+00
  385     6 C     1.046185466099E+01 -6.950449781457E+00 -1.182010728313E+01
  386     6 C     1.101572630470E+01  6.950449781457E+00  9.657473682565E+00
  387     6 C     1.046185466099E+01  6.950449781457E+00 -9.657473682565E+00
  388     6 C     1.101572630470E+01 -6.950449781457E+00  1.182010728313E+01
  389     6 C    -1.182010728313E+01  1.046185466099E+01 -6.950449781457E+00
  390     6 C    -6.950449781457E+00 -1.182010728313E+01  1.046185466099E+01
  391     6 C     1.182010728313E+01  1.101572630470E+01 -6.950449781457E+00
  392     6 C     6.950449781457E+00  9.657473682565E+00  1.101572630470E+01
  393     6 C     9.657473682565E+00  1.101572630470E+01  6.950449781457E+00
  394     6 C     6.950449781457E+00 -9.657473682565E+00  1.046185466099E+01
  395     6 C    -9.657473682565E+00  1.046185466099E+01  6.950449781457E+00
  396     6 C    -6.950449781457E+00  1.182010728313E+01  1.101572630470E+01
  397     6 C     3.788340701390E+00  2.120064514384E+01 -1.081316800282E+00
  398     6 C    -3.788340701390E+00  2.769358218571E-01 -1.081316800282E+00
  399     6 C    -3.788340701390E+00 -2.769358218571E-01 -2.039626416541E+01
  400     6 C    -1.768924026430E+01  2.769358218571E-01  1.081316800282E+00
  401     6 C     2.120064514384E+01 -1.081316800282E+00  3.788340701390E+00
  402     6 C    -1.081316800282E+00  3.788340701390E+00  2.120064514384E+01
  403     6 C     2.769358218571E-01  1.081316800282E+00 -1.768924026430E+01
  404     6 C    -1.081316800282E+00 -3.788340701390E+00  2.769358218571E-01
  405     6 C     2.769358218571E-01 -1.081316800282E+00 -3.788340701390E+00
  406     6 C    -2.039626416541E+01 -3.788340701390E+00 -2.769358218571E-01
  407     6 C    -2.769358218571E-01 -2.039626416541E+01 -3.788340701390E+00
  408     6 C     1.081316800282E+00 -1.768924026430E+01  2.769358218571E-01
  409     1 H     8.248887909695E+00 -4.998028930270E+00 -1.352679103623E+01
  410     1 H     1.322869305600E+01  4.998028930270E+00  7.950789929468E+00
  411     1 H     8.248887909695E+00  4.998028930270E+00 -7.950789929468E+00
  412     1 H     1.322869305600E+01 -4.998028930270E+00  1.352679103623E+01
  413     1 H    -1.352679103623E+01  8.248887909695E+00 -4.998028930270E+00
  414     1 H    -4.998028930270E+00 -1.352679103623E+01  8.248887909695E+00
  415     1 H     1.352679103623E+01  1.322869305600E+01 -4.998028930270E+00
  416     1 H     4.998028930270E+00  7.950789929468E+00  1.322869305600E+01
  417     1 H     7.950789929468E+00  1.322869305600E+01  4.998028930270E+00
  418     1 H     4.998028930270E+00 -7.950789929468E+00  8.248887909695E+00
  419     1 H    -7.950789929468E+00  8.248887909695E+00  4.998028930270E+00
  420     1 H    -4.998028930270E+00  1.352679103623E+01  1.322869305600E+01
  421     1 H     5.740761552578E+00  1.898767839254E+01 -2.788000553379E+00
  422     1 H    -5.740761552578E+00  2.489902573152E+00 -2.788000553379E+00
  423     1 H    -5.740761552578E+00 -2.489902573152E+00 -1.868958041232E+01
  424     1 H    -1.573681941312E+01  2.489902573152E+00  2.788000553379E+00
  425     1 H     1.898767839254E+01 -2.788000553379E+00  5.740761552578E+00
  426     1 H    -2.788000553379E+00  5.740761552578E+00  1.898767839254E+01
  427     1 H     2.489902573152E+00  2.788000553379E+00 -1.573681941312E+01
  428     1 H    -2.788000553379E+00 -5.740761552578E+00  2.489902573152E+00
  429     1 H     2.489902573152E+00 -2.788000553379E+00 -5.740761552578E+00
  430     1 H    -1.868958041232E+01 -5.740761552578E+00 -2.489902573152E+00
  431     1 H    -2.489902573152E+00 -1.868958041232E+01 -5.740761552578E+00
  432     1 H     2.788000553379E+00 -1.573681941312E+01  2.489902573152E+00
  433     6 C     8.833160454837E+00 -5.371770048170E+00 -1.268721605126E+01
  434     6 C     1.264442051086E+01  5.371770048170E+00  8.790364914439E+00
  435     6 C     8.833160454837E+00  5.371770048170E+00 -8.790364914439E+00
  436     6 C     1.264442051086E+01 -5.371770048170E+00  1.268721605126E+01
  437     6 C    -1.268721605126E+01  8.833160454837E+00 -5.371770048170E+00
  438     6 C    -5.371770048170E+00 -1.268721605126E+01  8.833160454837E+00
  439     6 C     1.268721605126E+01  1.264442051086E+01 -5.371770048170E+00
  440     6 C     5.371770048170E+00  8.790364914439E+00  1.264442051086E+01
  441     6 C     8.790364914439E+00  1.264442051086E+01  5.371770048170E+00
  442     6 C     5.371770048170E+00 -8.790364914439E+00  8.833160454837E+00
  443     6 C    -8.790364914439E+00  8.833160454837E+00  5.371770048170E+00
  444     6 C    -5.371770048170E+00  1.268721605126E+01  1.264442051086E+01
  445     6 C     5.367020434678E+00  1.957195093768E+01 -1.948425568408E+00
  446     6 C    -5.367020434678E+00  1.905630028011E+00 -1.948425568408E+00
  447     6 C    -5.367020434678E+00 -1.905630028011E+00 -1.952915539729E+01
  448     6 C    -1.611056053102E+01  1.905630028011E+00  1.948425568408E+00
  449     6 C     1.957195093768E+01 -1.948425568408E+00  5.367020434678E+00
  450     6 C    -1.948425568408E+00  5.367020434678E+00  1.957195093768E+01
  451     6 C     1.905630028011E+00  1.948425568408E+00 -1.611056053102E+01
  452     6 C    -1.948425568408E+00 -5.367020434678E+00  1.905630028011E+00
  453     6 C     1.905630028011E+00 -1.948425568408E+00 -5.367020434678E+00
  454     6 C    -1.952915539729E+01 -5.367020434678E+00 -1.905630028011E+00
  455     6 C    -1.905630028011E+00 -1.952915539729E+01 -5.367020434678E+00
  456     6 C     1.948425568408E+00 -1.611056053102E+01  1.905630028011E+00
  457     6 C     8.782162026066E+00 -4.697480184795E+00 -1.145906118352E+01
  458     6 C     1.269541893963E+01  4.697480184795E+00  1.001851978217E+01
  459     6 C     8.782162026066E+00  4.697480184795E+00 -1.001851978217E+01
  460     6 C     1.269541893963E+01 -4.697480184795E+00  1.145906118352E+01
  461     6 C    -1.145906118352E+01  8.782162026066E+00 -4.697480184795E+00
  462     6 C    -4.697480184795E+00 -1.145906118352E+01  8.782162026066E+00
  463     6 C     1.145906118352E+01  1.269541893963E+01 -4.697480184795E+00
  464     6 C     4.697480184795E+00  1.001851978217E+01  1.269541893963E+01
  465     6 C     1.001851978217E+01  1.269541893963E+01  4.697480184795E+00
  466     6 C     4.697480184795E+00 -1.001851978217E+01  8.782162026066E+00
  467     6 C    -1.001851978217E+01  8.782162026066E+00  4.697480184795E+00
  468     6 C    -4.697480184795E+00  1.145906118352E+01  1.269541893963E+01
  469     6 C     6.041310298052E+00  1.952095250891E+01 -7.202707006743E-01
  470     6 C    -6.041310298052E+00  1.956628456781E+00 -7.202707006743E-01
  471     6 C    -6.041310298052E+00 -1.956628456781E+00 -2.075731026502E+01
  472     6 C    -1.543627066764E+01  1.956628456781E+00  7.202707006743E-01
  473     6 C     1.952095250891E+01 -7.202707006743E-01  6.041310298052E+00
  474     6 C    -7.202707006743E-01  6.041310298052E+00  1.952095250891E+01
  475     6 C     1.956628456781E+00  7.202707006743E-01 -1.543627066764E+01
  476     6 C    -7.202707006743E-01 -6.041310298052E+00  1.956628456781E+00
  477     6 C     1.956628456781E+00 -7.202707006743E-01 -6.041310298052E+00
  478     6 C    -2.075731026502E+01 -6.041310298052E+00 -1.956628456781E+00
  479     6 C    -1.956628456781E+00 -2.075731026502E+01 -6.041310298052E+00
  480     6 C     7.202707006743E-01 -1.543627066764E+01  1.956628456781E+00
  481     6 C     1.042233974546E+01 -6.265775996101E+00 -1.059908822597E+01
  482     6 C     1.105524122023E+01  6.265775996101E+00  1.087849273973E+01
  483     6 C     1.042233974546E+01  6.265775996101E+00 -1.087849273973E+01
  484     6 C     1.105524122023E+01 -6.265775996101E+00  1.059908822597E+01
  485     6 C    -1.059908822597E+01  1.042233974546E+01 -6.265775996101E+00
  486     6 C    -6.265775996101E+00 -1.059908822597E+01  1.042233974546E+01
  487     6 C     1.059908822597E+01  1.105524122023E+01 -6.265775996101E+00
  488     6 C     6.265775996101E+00  1.087849273973E+01  1.105524122023E+01
  489     6 C     1.087849273973E+01  1.105524122023E+01  6.265775996101E+00
  490     6 C     6.265775996101E+00 -1.087849273973E+01  1.042233974546E+01
  491     6 C    -1.087849273973E+01  1.042233974546E+01  6.265775996101E+00
  492     6 C    -6.265775996101E+00  1.059908822597E+01  1.105524122023E+01
  493     6 C     4.473014486747E+00  2.116113022831E+01  1.397022568803E-01
  494     6 C    -4.473014486747E+00  3.164507373835E-01  1.397022568803E-01
  495     6 C    -4.473014486747E+00 -3.164507373835E-01  2.133787870881E+01
  496     6 C    -1.700456647895E+01  3.164507373835E-01 -1.397022568803E-01
  497     6 C     2.116113022831E+01  1.397022568803E-01  4.473014486747E+00
  498     6 C     1.397022568803E-01  4.473014486747E+00  2.116113022831E+01
  499     6 C     3.164507373835E-01 -1.397022568803E-01 -1.700456647895E+01
  500     6 C     1.397022568803E-01 -4.473014486747E+00  3.164507373835E-01
  501     6 C     3.164507373835E-01  1.397022568803E-01 -4.473014486747E+00
  502     6 C     2.133787870881E+01 -4.473014486747E+00 -3.164507373835E-01
  503     6 C    -3.164507373835E-01  2.133787870881E+01 -4.473014486747E+00
  504     6 C    -1.397022568803E-01 -1.700456647895E+01  3.164507373835E-01
  505     5 B     1.139043944415E+01 -8.159509646500E+00 -1.203317933114E+01
  506     5 B     1.008714152155E+01  8.159509646500E+00  9.444401634554E+00
  507     5 B     1.139043944415E+01  8.159509646500E+00 -9.444401634554E+00
  508     5 B     1.008714152155E+01 -8.159509646500E+00  1.203317933114E+01
  509     5 B    -1.203317933114E+01  1.139043944415E+01 -8.159509646500E+00
  510     5 B    -8.159509646500E+00 -1.203317933114E+01  1.139043944415E+01
  511     5 B     1.203317933114E+01  1.008714152155E+01 -8.159509646500E+00
  512     5 B     8.159509646500E+00  9.444401634554E+00  1.008714152155E+01
  513     5 B     9.444401634554E+00  1.008714152155E+01  8.159509646500E+00
  514     5 B     8.159509646500E+00 -9.444401634554E+00  1.139043944415E+01
  515     5 B    -9.444401634554E+00  1.139043944415E+01  8.159509646500E+00
  516     5 B    -8.159509646500E+00  1.203317933114E+01  1.008714152155E+01
  517     5 B     2.579280836347E+00 -2.082593200440E+01 -1.294388848293E+00
  518     5 B    -2.579280836347E+00 -6.516489612988E-01 -1.294388848293E+00
  519     5 B    -2.579280836347E+00  6.516489612988E-01 -2.018319211740E+01
  520     5 B    -1.889830012935E+01 -6.516489612988E-01  1.294388848293E+00
  521     5 B    -2.082593200440E+01 -1.294388848293E+00  2.579280836347E+00
  522     5 B    -1.294388848293E+00  2.579280836347E+00 -2.082593200440E+01
  523     5 B    -6.516489612988E-01  1.294388848293E+00 -1.889830012935E+01
  524     5 B    -1.294388848293E+00 -2.579280836347E+00 -6.516489612988E-01
  525     5 B    -6.516489612988E-01 -1.294388848293E+00 -2.579280836347E+00
  526     5 B    -2.018319211740E+01 -2.579280836347E+00  6.516489612988E-01
  527     5 B     6.516489612988E-01 -2.018319211740E+01 -2.579280836347E+00
  528     5 B     1.294388848293E+00 -1.889830012935E+01 -6.516489612988E-01
  529     6 C     0.000000000000E+00 -1.073879048285E+01  5.369395241424E+00
  530     6 C     0.000000000000E+00  1.073879048285E+01  1.610818572427E+01
  531     6 C     5.369395241424E+00  0.000000000000E+00 -1.073879048285E+01
  532     6 C    -1.073879048285E+01  5.369395241424E+00  0.000000000000E+00
  533     6 C     1.610818572427E+01  0.000000000000E+00  1.073879048285E+01
  534     6 C     1.073879048285E+01  1.610818572427E+01  0.000000000000E+00

 ****   24 SYMMOPS - TRANSLATORS IN FRACTIONAL UNITS
 **** MATRICES AND TRANSLATORS IN THE CRYSTALLOGRAPHIC REFERENCE FRAME
   V INV                    ROTATION MATRICES                   TRANSLATORS
   1   1  1.00  0.00  0.00  0.00  1.00  0.00  0.00  0.00  1.00  0.00  0.00  0.00
   2   2  0.00  1.00 -1.00  1.00  0.00 -1.00  0.00  0.00 -1.00  0.50  0.00  0.50
   3   3 -1.00  0.00  0.00 -1.00  0.00  1.00 -1.00  1.00  0.00  0.50  0.50  0.00
   4   4  0.00 -1.00  1.00  0.00 -1.00  0.00  1.00 -1.00  0.00  0.00  0.50  0.50
   5   6  0.00  0.00  1.00  1.00  0.00  0.00  0.00  1.00  0.00  0.00  0.00  0.00
   6   5  0.00  1.00  0.00  0.00  0.00  1.00  1.00  0.00  0.00  0.00  0.00  0.00
   7   8  1.00 -1.00  0.00  0.00 -1.00  1.00  0.00 -1.00  0.00  0.50  0.00  0.50
   8   7  1.00  0.00 -1.00  0.00  0.00 -1.00  0.00  1.00 -1.00  0.00  0.50  0.50
   9  10  0.00  0.00 -1.00  0.00  1.00 -1.00  1.00  0.00 -1.00  0.50  0.50  0.00
  10   9 -1.00  0.00  1.00 -1.00  1.00  0.00 -1.00  0.00  0.00  0.50  0.00  0.50
  11  12 -1.00  1.00  0.00 -1.00  0.00  0.00 -1.00  0.00  1.00  0.00  0.50  0.50
  12  11  0.00 -1.00  0.00  1.00 -1.00  0.00  0.00 -1.00  1.00  0.50  0.50  0.00
  13  13  0.00  1.00  0.00  1.00  0.00  0.00  0.00  0.00  1.00  0.50  0.50  0.50
  14  14  1.00  0.00 -1.00  0.00  1.00 -1.00  0.00  0.00 -1.00  0.50  1.00  1.00
  15  16 -1.00  0.00  1.00 -1.00  0.00  0.00 -1.00  1.00  0.00  1.00  1.00  0.50
  16  15  0.00 -1.00  0.00  0.00 -1.00  1.00  1.00 -1.00  0.00  1.00  0.50  1.00
  17  17  1.00  0.00  0.00  0.00  0.00  1.00  0.00  1.00  0.00  0.50  0.50  0.50
  18  18  0.00  0.00  1.00  0.00  1.00  0.00  1.00  0.00  0.00  0.50  0.50  0.50
  19  21  0.00 -1.00  1.00  1.00 -1.00  0.00  0.00 -1.00  0.00  0.50  1.00  1.00
  20  22  0.00  0.00 -1.00  1.00  0.00 -1.00  0.00  1.00 -1.00  1.00  0.50  1.00
  21  19  0.00  1.00 -1.00  0.00  0.00 -1.00  1.00  0.00 -1.00  1.00  1.00  0.50
  22  20 -1.00  1.00  0.00 -1.00  0.00  1.00 -1.00  0.00  0.00  0.50  1.00  1.00
  23  23 -1.00  0.00  0.00 -1.00  1.00  0.00 -1.00  0.00  1.00  1.00  0.50  1.00
  24  24  1.00 -1.00  0.00  0.00 -1.00  0.00  0.00 -1.00  1.00  1.00  1.00  0.50
 TTTTTTTTTTTTTTTTTTTTTTTTTTTTTT END         TELAPSE    13791.05 TCPU    13716.41
 MMMMM END         USED MEM(MB)    541.79 MAX MEM    753.85 TOT MEM     17337.18
 EEEEEEEEEE TERMINATION  DATE 25 07 2024 TIME 04:00:22.1
NODE    0 CPU TIME =     13716.410
NODE    1 CPU TIME =     13736.450
NODE    2 CPU TIME =     13736.649
NODE    3 CPU TIME =     13737.646
NODE    4 CPU TIME =     13737.933
NODE    5 CPU TIME =     13740.268
NODE    6 CPU TIME =     13739.105
NODE    7 CPU TIME =     13739.378
NODE    8 CPU TIME =     13731.729
NODE    9 CPU TIME =     13738.031
NODE   10 CPU TIME =     13737.259
NODE   11 CPU TIME =     13737.378
NODE   12 CPU TIME =     13739.553
NODE   13 CPU TIME =     13736.810
NODE   14 CPU TIME =     13738.862
NODE   15 CPU TIME =     13738.902
NODE   16 CPU TIME =     13735.315
NODE   17 CPU TIME =     13734.009
NODE   18 CPU TIME =     13734.665
NODE   19 CPU TIME =     13734.697
NODE   20 CPU TIME =     13739.716
NODE   21 CPU TIME =     13738.033
NODE   22 CPU TIME =     13728.109
NODE   23 CPU TIME =     13737.197
NODE   24 CPU TIME =     13730.498
NODE   25 CPU TIME =     13724.336
NODE   26 CPU TIME =     13736.780
NODE   27 CPU TIME =     13723.763
NODE   28 CPU TIME =     13721.628
NODE   29 CPU TIME =     13723.277
NODE   30 CPU TIME =     13706.465
NODE   31 CPU TIME =     13727.130
    TOTAL CPU TIME =    439457.982
