 PROCESS           11  OF           24  WORKING
 PROCESS           18  OF           24  WORKING
 PROCESS           17  OF           24  WORKING
 PROCESS            4  OF           24  WORKING
 PROCESS           10  OF           24  WORKING
 PROCESS           19  OF           24  WORKING
 PROCESS           20  OF           24  WORKING
 PROCESS           22  OF           24  WORKING
 PROCESS            0  OF           24  WORKING
 PROCESS           15  OF           24  WORKING
 PROCESS            9  OF           24  WORKING
 PROCESS           16  OF           24  WORKING
 PROCESS           14  OF           24  WORKING
 PROCESS           21  OF           24  WORKING
 PROCESS           23  OF           24  WORKING
 PROCESS            2  OF           24  WORKING
 PROCESS            3  OF           24  WORKING

         
 *******************************************************************************
 *                                                                             *
 *                               CRYSTAL23                                     *
 *                      public : 1.0.1 - October 2022                          *
 *                       HTTP://WWW.CRYSTAL.UNITO.IT                           *
 *                                                                             *
 *                              MAIN AUTHORS                                   *
 *                                                                             *
 *  R. DOVESI(1,11), V.R. SAUNDERS(2), C. ROETTI(1,11), R. ORLANDO(1,11),      *
 *  C.M. ZICOVICH-WILSON(1,3), F. PASCALE(4), B. CIVALLERI(1,11),              *
 *  K. DOLL(5), N.M. HARRISON(6), I.J. BUSH(7), Ph. D'ARCO(8),                 *
 *  M. LLUNELL(9), M. CAUSA'(10), Y. NOEL(8), L. MASCHIO(1,11), A. ERBA(1,11)  *
 *  M. RE'RAT(14), S. CASASSA(1,11), B.G. SEARLE(2), J.K. DESMARAIS(1)         *
 *                                                                             *
 *        CONTRIBUTIONS TO THE CODE HAVE ALSO BEEN GIVEN BY                    *
 *                                                                             *
 *  M. FERRABONE(1,11), M. DE LA PIERRE(1,11), M. FERRERO(1,11),               *
 *  J. BAIMA(1,11), E. ALBANESE(1,11), M.F. PEINTINGER(12), R. BAST(13),       *
 *  B. KIRTMAN(15), V. LACIVITA(1,11), R. DEMICHELIS(1,16)                     *
 *  G. BRANDEBURG(17), S. SALUSTRO(1,11), G. SANSONE(1,11)                     *
 *  M.T. RUGGIERO(18), L.E. DAGA(1), L. DONA'(1), A. COSSARD(1)                *
 *                                                                             *
 * (1) THEORETICAL CHEMISTRY GROUP - UNIVERSITA' DI TORINO - TORINO (ITALY)    *
 * (2) SCIENTIFIC COMPUTING DEPARTMENT - STFC DARESBURY (UK)                   *
 * (3) UNIVERSIDAD AUTONOMA DEL ESTADO DE MORELOS - CUERNAVACA (MEXICO)        *
 * (4) UNIVERSITE' DE LORRAINE - NANCY (FRANCE)                                *
 * (5) UNIVERSITAET STUTTGART- STUTTGART (GERMANY)                             *
 * (6) IMPERIAL COLLEGE - LONDON (UK)                                          *
 * (7) SCIENTIFIC COMPUTING DEPARTMENT - STFC RAL (UK)                         *
 * (8) UPMC - SORBONNE UNIVERSITES - PARIS (FRANCE)                            *
 * (9) UNIVERSIDAD DE BARCELONA - BARCELONA (SPAIN)                            *
 *(10) UNIVERSITA' DI NAPOLI "FEDERICO II" - NAPOLI (ITALY)                    *
 *(11) NIS - NANOSTRUCTURED INTERFACES AND SURFACES - TORINO (ITALY)           *
 *(12) MPI FUER CHEMISCHE ENERGIEKONVERSION - MUELHEIM AN DER RUHR (GERMANY)   *
 *(13) UNIVERSITY OF TROMSO - TROMSO (NORWAY)                                  *
 *(14) UNIVERSITE' DE PAU ET DES PAYS DE L'ADOUR - PAU (FRANCE)                *
 *(15) UNIVERSITY OF CALIFORNIA SANTA BARBARA - SANTA BARBARA (USA)            *
 *(16) CURTIN UNIVERSITY - PERTH (AUSTRALIA)                                   *
 *(17) UNIVERSITY COLLEGE LONDON - LONDON (UK)                                 *
 *(18) UNIVERSITY OF VERMONT - BURLINGTON (USA)                                *
 *                                                                             *
 *******************************************************************************
 EEEEEEEEEE STARTING  DATE 28 04 2025 TIME 16:38:07.2
 MnCltryCOF102_sym                                                               
 PROCESS            8  OF           24  WORKING
 PROCESS           12  OF           24  WORKING
 PROCESS           13  OF           24  WORKING
 PROCESS            5  OF           24  WORKING
 PROCESS            7  OF           24  WORKING
 PROCESS            1  OF           24  WORKING
 PROCESS            6  OF           24  WORKING

 CRYSTAL CALCULATION
 (INPUT ACCORDING TO THE INTERNATIONAL TABLES FOR X-RAY CRYSTALLOGRAPHY)
 CRYSTAL FAMILY                       :  CUBIC       
 CRYSTAL CLASS  (GROTH - 1921)        :  CUBIC HEXAKISTETRAHEDRAL             

 SPACE GROUP (NONCENTROSYMMETRIC)     :  I -4 3 D        

 LATTICE PARAMETERS  (ANGSTROMS AND DEGREES) - CONVENTIONAL CELL
        A           B           C        ALPHA        BETA       GAMMA
    21.36821    21.36821    21.36821    90.00000    90.00000    90.00000


 NUMBER OF IRREDUCIBLE ATOMS IN THE CONVENTIONAL CELL:   13

 INPUT COORDINATES

 ATOM AT. N.              COORDINATES
   1   6     3.529366294813E-01  1.082198963640E-01  2.027812907427E-01
   2   1     3.679769302343E-01  1.003413449777E-01  1.549632314296E-01
   3   6     3.363859691678E-01  5.994193357585E-02  2.443778664875E-01
   4   6     2.961954423404E-01  7.732670180319E-02  2.933339080796E-01
   5   1     2.711537972149E-01  4.263697136279E-02  3.213081156840E-01
   6   7     2.893453563495E-01  1.372406818822E-01  3.101496621547E-01
   7   6     3.268495292799E-01  1.787053499896E-01  2.785208601760E-01
   8   6     3.266350400729E-01  2.402366684300E-01  2.986122347662E-01
   9   7     3.495635773459E-01  1.681294513557E-01  2.193206703581E-01
  10   7     2.804777719160E-01  2.507425932851E-01  3.422661408300E-01
  11  25    -1.905985716126E-03  1.309823149924E-01 -6.943981334676E-02
  12  17    -5.026217729563E-02  1.661812703098E-01 -1.633393891528E-01
  13   6     3.750000000000E-01  3.596121420423E-17  2.500000000000E-01

 *******************************************************************************

 << INFORMATION >>: FROM NOW ON, ALL COORDINATES REFER TO THE PRIMITIVE CELL

 *******************************************************************************

 LATTICE PARAMETERS  (ANGSTROMS AND DEGREES) - PRIMITIVE CELL
       A          B          C        ALPHA      BETA     GAMMA        VOLUME
   18.50541   18.50541   18.50541   109.47122 109.47122 109.47122   4878.367698

 COORDINATES OF THE EQUIVALENT ATOMS (FRACTIONAL UNITS)

 N. ATOM EQUIV AT. N.          X                  Y                  Z

   1   1   1    6 C     3.11001187107E-01 -4.44282079776E-01  4.61156525845E-01
   2   1   2    6 C    -4.05438605621E-01 -1.50155338739E-01  3.88434741547E-02
   3   1   3    6 C     1.88998812893E-01 -3.49844661261E-01  2.44716733117E-01
   4   1   4    6 C    -9.45613943787E-02 -5.57179202240E-02  2.55283266883E-01
   5   1   5    6 C     4.61156525845E-01  3.11001187107E-01 -4.44282079776E-01
   6   1   6    6 C    -4.44282079776E-01  4.61156525845E-01  3.11001187107E-01
   7   1   7    6 C     2.55283266883E-01 -9.45613943787E-02 -5.57179202240E-02
   8   1   8    6 C    -1.50155338739E-01  3.88434741547E-02 -4.05438605621E-01
   9   1   9    6 C     3.88434741547E-02 -4.05438605621E-01 -1.50155338739E-01
  10   1  10    6 C    -3.49844661261E-01  2.44716733117E-01  1.88998812893E-01
  11   1  11    6 C     2.44716733117E-01  1.88998812893E-01 -3.49844661261E-01
  12   1  12    6 C    -5.57179202240E-02  2.55283266883E-01 -9.45613943787E-02
  13   1  13    6 C     5.57179202240E-02 -1.88998812893E-01 -3.88434741547E-02
  14   1  14    6 C     3.49844661261E-01  9.45613943787E-02 -4.61156525845E-01
  15   1  15    6 C     1.50155338739E-01 -3.11001187107E-01 -2.55283266883E-01
  16   1  16    6 C     4.44282079776E-01  4.05438605621E-01 -2.44716733117E-01
  17   1  17    6 C    -1.88998812893E-01 -3.88434741547E-02  5.57179202240E-02
  18   1  18    6 C    -3.88434741547E-02  5.57179202240E-02 -1.88998812893E-01
  19   1  19    6 C     4.05438605621E-01 -2.44716733117E-01  4.44282079776E-01
  20   1  20    6 C    -4.61156525845E-01  3.49844661261E-01  9.45613943787E-02
  21   1  21    6 C     9.45613943787E-02 -4.61156525845E-01  3.49844661261E-01
  22   1  22    6 C    -2.55283266883E-01  1.50155338739E-01 -3.11001187107E-01
  23   1  23    6 C    -3.11001187107E-01 -2.55283266883E-01  1.50155338739E-01
  24   1  24    6 C    -2.44716733117E-01  4.44282079776E-01  4.05438605621E-01

  25   2   1    1 H     2.55304576407E-01 -4.77059838336E-01  4.68318275212E-01
  26   2   2    1 H    -4.45378113548E-01 -2.13013698805E-01  3.16817247880E-02
  27   2   3    1 H     2.44695423593E-01 -2.86986301195E-01  2.67635585257E-01
  28   2   4    1 H    -5.46218864519E-02 -2.29401616639E-02  2.32364414743E-01
  29   2   5    1 H     4.68318275212E-01  2.55304576407E-01 -4.77059838336E-01
  30   2   6    1 H    -4.77059838336E-01  4.68318275212E-01  2.55304576407E-01
  31   2   7    1 H     2.32364414743E-01 -5.46218864519E-02 -2.29401616639E-02
  32   2   8    1 H    -2.13013698805E-01  3.16817247880E-02 -4.45378113548E-01
  33   2   9    1 H     3.16817247880E-02 -4.45378113548E-01 -2.13013698805E-01
  34   2  10    1 H    -2.86986301195E-01  2.67635585257E-01  2.44695423593E-01
  35   2  11    1 H     2.67635585257E-01  2.44695423593E-01 -2.86986301195E-01
  36   2  12    1 H    -2.29401616639E-02  2.32364414743E-01 -5.46218864519E-02
  37   2  13    1 H     2.29401616639E-02 -2.44695423593E-01 -3.16817247880E-02
  38   2  14    1 H     2.86986301195E-01  5.46218864519E-02 -4.68318275212E-01
  39   2  15    1 H     2.13013698805E-01 -2.55304576407E-01 -2.32364414743E-01
  40   2  16    1 H     4.77059838336E-01  4.45378113548E-01 -2.67635585257E-01
  41   2  17    1 H    -2.44695423593E-01 -3.16817247880E-02  2.29401616639E-02
  42   2  18    1 H    -3.16817247880E-02  2.29401616639E-02 -2.44695423593E-01
  43   2  19    1 H     4.45378113548E-01 -2.67635585257E-01  4.77059838336E-01
  44   2  20    1 H    -4.68318275212E-01  2.86986301195E-01  5.46218864519E-02
  45   2  21    1 H     5.46218864519E-02 -4.68318275212E-01  2.86986301195E-01
  46   2  22    1 H    -2.32364414743E-01  2.13013698805E-01 -2.55304576407E-01
  47   2  23    1 H    -2.55304576407E-01 -2.32364414743E-01  2.13013698805E-01
  48   2  24    1 H    -2.67635585257E-01  4.77059838336E-01  4.45378113548E-01

  49   3   1    6 C     3.04319800063E-01 -4.19236164345E-01  3.96327902744E-01
  50   3   2    6 C    -3.15564067088E-01 -9.20081026803E-02  1.03672097256E-01
  51   3   3    6 C     1.95680199937E-01 -4.07991897320E-01  2.76444035592E-01
  52   3   4    6 C    -1.84435932912E-01 -8.07638356553E-02  2.23555964408E-01
  53   3   5    6 C     3.96327902744E-01  3.04319800063E-01 -4.19236164345E-01
  54   3   6    6 C    -4.19236164345E-01  3.96327902744E-01  3.04319800063E-01
  55   3   7    6 C     2.23555964408E-01 -1.84435932912E-01 -8.07638356553E-02
  56   3   8    6 C    -9.20081026803E-02  1.03672097256E-01 -3.15564067088E-01
  57   3   9    6 C     1.03672097256E-01 -3.15564067088E-01 -9.20081026803E-02
  58   3  10    6 C    -4.07991897320E-01  2.76444035592E-01  1.95680199937E-01
  59   3  11    6 C     2.76444035592E-01  1.95680199937E-01 -4.07991897320E-01
  60   3  12    6 C    -8.07638356553E-02  2.23555964408E-01 -1.84435932912E-01
  61   3  13    6 C     8.07638356553E-02 -1.95680199937E-01 -1.03672097256E-01
  62   3  14    6 C     4.07991897320E-01  1.84435932912E-01 -3.96327902744E-01
  63   3  15    6 C     9.20081026803E-02 -3.04319800063E-01 -2.23555964408E-01
  64   3  16    6 C     4.19236164345E-01  3.15564067088E-01 -2.76444035592E-01
  65   3  17    6 C    -1.95680199937E-01 -1.03672097256E-01  8.07638356553E-02
  66   3  18    6 C    -1.03672097256E-01  8.07638356553E-02 -1.95680199937E-01
  67   3  19    6 C     3.15564067088E-01 -2.76444035592E-01  4.19236164345E-01
  68   3  20    6 C    -3.96327902744E-01  4.07991897320E-01  1.84435932912E-01
  69   3  21    6 C     1.84435932912E-01 -3.96327902744E-01  4.07991897320E-01
  70   3  22    6 C    -2.23555964408E-01  9.20081026803E-02 -3.04319800063E-01
  71   3  23    6 C    -3.04319800063E-01 -2.23555964408E-01  9.20081026803E-02
  72   3  24    6 C    -2.76444035592E-01  4.19236164345E-01  3.15564067088E-01

  73   4   1    6 C     3.70660609883E-01 -4.10470649580E-01  3.73522144144E-01
  74   4   2    6 C    -2.83992793724E-01 -2.86153426080E-03  1.26477855856E-01
  75   4   3    6 C     1.29339390117E-01 -4.97138465739E-01  2.18868740537E-01
  76   4   4    6 C    -2.16007206276E-01 -8.95293504200E-02  2.81131259463E-01
  77   4   5    6 C     3.73522144144E-01  3.70660609883E-01 -4.10470649580E-01
  78   4   6    6 C    -4.10470649580E-01  3.73522144144E-01  3.70660609883E-01
  79   4   7    6 C     2.81131259463E-01 -2.16007206276E-01 -8.95293504200E-02
  80   4   8    6 C    -2.86153426080E-03  1.26477855856E-01 -2.83992793724E-01
  81   4   9    6 C     1.26477855856E-01 -2.83992793724E-01 -2.86153426080E-03
  82   4  10    6 C    -4.97138465739E-01  2.18868740537E-01  1.29339390117E-01
  83   4  11    6 C     2.18868740537E-01  1.29339390117E-01 -4.97138465739E-01
  84   4  12    6 C    -8.95293504200E-02  2.81131259463E-01 -2.16007206276E-01
  85   4  13    6 C     8.95293504200E-02 -1.29339390117E-01 -1.26477855856E-01
  86   4  14    6 C     4.97138465739E-01  2.16007206276E-01 -3.73522144144E-01
  87   4  15    6 C     2.86153426080E-03 -3.70660609883E-01 -2.81131259463E-01
  88   4  16    6 C     4.10470649580E-01  2.83992793724E-01 -2.18868740537E-01
  89   4  17    6 C    -1.29339390117E-01 -1.26477855856E-01  8.95293504200E-02
  90   4  18    6 C    -1.26477855856E-01  8.95293504200E-02 -1.29339390117E-01
  91   4  19    6 C     2.83992793724E-01 -2.18868740537E-01  4.10470649580E-01
  92   4  20    6 C    -3.73522144144E-01  4.97138465739E-01  2.16007206276E-01
  93   4  21    6 C     2.16007206276E-01 -3.73522144144E-01  4.97138465739E-01
  94   4  22    6 C    -2.81131259463E-01  2.86153426080E-03 -3.70660609883E-01
  95   4  23    6 C    -3.70660609883E-01 -2.81131259463E-01  2.86153426080E-03
  96   4  24    6 C    -2.18868740537E-01  4.10470649580E-01  2.83992793724E-01

  97   5   1    1 H     3.63945087047E-01 -4.07538087101E-01  3.13790768578E-01
  98   5   2    1 H    -2.21328855679E-01  5.01543184691E-02  1.86209231422E-01
  99   5   3    1 H     1.36054912953E-01  4.49845681531E-01  2.28516825852E-01
 100   5   4    1 H    -2.78671144321E-01 -9.24619128989E-02  2.71483174148E-01
 101   5   5    1 H     3.13790768578E-01  3.63945087047E-01 -4.07538087101E-01
 102   5   6    1 H    -4.07538087101E-01  3.13790768578E-01  3.63945087047E-01
 103   5   7    1 H     2.71483174148E-01 -2.78671144321E-01 -9.24619128989E-02
 104   5   8    1 H     5.01543184691E-02  1.86209231422E-01 -2.21328855679E-01
 105   5   9    1 H     1.86209231422E-01 -2.21328855679E-01  5.01543184691E-02
 106   5  10    1 H     4.49845681531E-01  2.28516825852E-01  1.36054912953E-01
 107   5  11    1 H     2.28516825852E-01  1.36054912953E-01  4.49845681531E-01
 108   5  12    1 H    -9.24619128989E-02  2.71483174148E-01 -2.78671144321E-01
 109   5  13    1 H     9.24619128989E-02 -1.36054912953E-01 -1.86209231422E-01
 110   5  14    1 H    -4.49845681531E-01  2.78671144321E-01 -3.13790768578E-01
 111   5  15    1 H    -5.01543184691E-02 -3.63945087047E-01 -2.71483174148E-01
 112   5  16    1 H     4.07538087101E-01  2.21328855679E-01 -2.28516825852E-01
 113   5  17    1 H    -1.36054912953E-01 -1.86209231422E-01  9.24619128989E-02
 114   5  18    1 H    -1.86209231422E-01  9.24619128989E-02 -1.36054912953E-01
 115   5  19    1 H     2.21328855679E-01 -2.28516825852E-01  4.07538087101E-01
 116   5  20    1 H    -3.13790768578E-01 -4.49845681531E-01  2.78671144321E-01
 117   5  21    1 H     2.78671144321E-01 -3.13790768578E-01 -4.49845681531E-01
 118   5  22    1 H    -2.71483174148E-01 -5.01543184691E-02 -3.63945087047E-01
 119   5  23    1 H    -3.63945087047E-01 -2.71483174148E-01 -5.01543184691E-02
 120   5  24    1 H    -2.28516825852E-01  4.07538087101E-01  2.21328855679E-01

 121   6   1    7 N     4.47390344037E-01 -4.00504981496E-01  4.26586038232E-01
 122   6   2    7 N    -3.27091019727E-01  2.08043058052E-02  7.34139617683E-02
 123   6   3    7 N     5.26096559631E-02  4.79195694195E-01  1.52104674467E-01
 124   6   4    7 N    -1.72908980273E-01 -9.94950185042E-02  3.47895325533E-01
 125   6   5    7 N     4.26586038232E-01  4.47390344037E-01 -4.00504981496E-01
 126   6   6    7 N    -4.00504981496E-01  4.26586038232E-01  4.47390344037E-01
 127   6   7    7 N     3.47895325533E-01 -1.72908980273E-01 -9.94950185042E-02
 128   6   8    7 N     2.08043058052E-02  7.34139617683E-02 -3.27091019727E-01
 129   6   9    7 N     7.34139617683E-02 -3.27091019727E-01  2.08043058052E-02
 130   6  10    7 N     4.79195694195E-01  1.52104674467E-01  5.26096559631E-02
 131   6  11    7 N     1.52104674467E-01  5.26096559631E-02  4.79195694195E-01
 132   6  12    7 N    -9.94950185042E-02  3.47895325533E-01 -1.72908980273E-01
 133   6  13    7 N     9.94950185042E-02 -5.26096559631E-02 -7.34139617683E-02
 134   6  14    7 N    -4.79195694195E-01  1.72908980272E-01 -4.26586038232E-01
 135   6  15    7 N    -2.08043058052E-02 -4.47390344037E-01 -3.47895325533E-01
 136   6  16    7 N     4.00504981496E-01  3.27091019727E-01 -1.52104674467E-01
 137   6  17    7 N    -5.26096559631E-02 -7.34139617683E-02  9.94950185042E-02
 138   6  18    7 N    -7.34139617683E-02  9.94950185042E-02 -5.26096559631E-02
 139   6  19    7 N     3.27091019727E-01 -1.52104674467E-01  4.00504981496E-01
 140   6  20    7 N    -4.26586038232E-01 -4.79195694195E-01  1.72908980272E-01
 141   6  21    7 N     1.72908980272E-01 -4.26586038232E-01 -4.79195694195E-01
 142   6  22    7 N    -3.47895325533E-01 -2.08043058052E-02 -4.47390344037E-01
 143   6  23    7 N    -4.47390344037E-01 -3.47895325533E-01 -2.08043058052E-02
 144   6  24    7 N    -1.52104674467E-01  4.00504981496E-01  3.27091019727E-01

 145   7   1    6 C     4.57226210166E-01 -3.94629610544E-01 -4.94445120730E-01
 146   7   2    6 C    -4.00184489814E-01 -4.83286691039E-02 -5.55487926950E-03
 147   7   3    6 C     4.27737898344E-02 -4.51671330896E-01  1.48144179290E-01
 148   7   4    6 C    -9.98155101864E-02 -1.05370389456E-01  3.51855820710E-01
 149   7   5    6 C    -4.94445120730E-01  4.57226210166E-01 -3.94629610544E-01
 150   7   6    6 C    -3.94629610544E-01 -4.94445120730E-01  4.57226210166E-01
 151   7   7    6 C     3.51855820710E-01 -9.98155101864E-02 -1.05370389456E-01
 152   7   8    6 C    -4.83286691039E-02 -5.55487926950E-03 -4.00184489814E-01
 153   7   9    6 C    -5.55487926950E-03 -4.00184489814E-01 -4.83286691039E-02
 154   7  10    6 C    -4.51671330896E-01  1.48144179290E-01  4.27737898344E-02
 155   7  11    6 C     1.48144179290E-01  4.27737898344E-02 -4.51671330896E-01
 156   7  12    6 C    -1.05370389456E-01  3.51855820710E-01 -9.98155101864E-02
 157   7  13    6 C     1.05370389456E-01 -4.27737898344E-02  5.55487926950E-03
 158   7  14    6 C     4.51671330896E-01  9.98155101864E-02  4.94445120731E-01
 159   7  15    6 C     4.83286691039E-02 -4.57226210166E-01 -3.51855820710E-01
 160   7  16    6 C     3.94629610544E-01  4.00184489814E-01 -1.48144179290E-01
 161   7  17    6 C    -4.27737898344E-02  5.55487926950E-03  1.05370389456E-01
 162   7  18    6 C     5.55487926950E-03  1.05370389456E-01 -4.27737898344E-02
 163   7  19    6 C     4.00184489814E-01 -1.48144179290E-01  3.94629610544E-01
 164   7  20    6 C     4.94445120731E-01  4.51671330896E-01  9.98155101864E-02
 165   7  21    6 C     9.98155101864E-02  4.94445120731E-01  4.51671330896E-01
 166   7  22    6 C    -3.51855820710E-01  4.83286691039E-02 -4.57226210166E-01
 167   7  23    6 C    -4.57226210166E-01 -3.51855820710E-01  4.83286691039E-02
 168   7  24    6 C    -1.48144179290E-01  3.94629610544E-01  4.00184489814E-01

 169   8   1    6 C    -4.61151096804E-01 -3.74752725161E-01 -4.33128291497E-01
 170   8   2    6 C    -4.41624433664E-01 -2.80228053067E-02 -6.68717085029E-02
 171   8   3    6 C    -3.88489031962E-02 -4.71977194693E-01  8.63983716429E-02
 172   8   4    6 C    -5.83755663362E-02 -1.25247274839E-01  4.13601628357E-01
 173   8   5    6 C    -4.33128291497E-01 -4.61151096804E-01 -3.74752725161E-01
 174   8   6    6 C    -3.74752725161E-01 -4.33128291497E-01 -4.61151096804E-01
 175   8   7    6 C     4.13601628357E-01 -5.83755663362E-02 -1.25247274839E-01
 176   8   8    6 C    -2.80228053067E-02 -6.68717085029E-02 -4.41624433664E-01
 177   8   9    6 C    -6.68717085029E-02 -4.41624433664E-01 -2.80228053067E-02
 178   8  10    6 C    -4.71977194693E-01  8.63983716429E-02 -3.88489031962E-02
 179   8  11    6 C     8.63983716429E-02 -3.88489031962E-02 -4.71977194693E-01
 180   8  12    6 C    -1.25247274839E-01  4.13601628357E-01 -5.83755663362E-02
 181   8  13    6 C     1.25247274839E-01  3.88489031962E-02  6.68717085029E-02
 182   8  14    6 C     4.71977194693E-01  5.83755663362E-02  4.33128291497E-01
 183   8  15    6 C     2.80228053067E-02  4.61151096804E-01 -4.13601628357E-01
 184   8  16    6 C     3.74752725161E-01  4.41624433664E-01 -8.63983716429E-02
 185   8  17    6 C     3.88489031962E-02  6.68717085029E-02  1.25247274839E-01
 186   8  18    6 C     6.68717085029E-02  1.25247274839E-01  3.88489031962E-02
 187   8  19    6 C     4.41624433664E-01 -8.63983716429E-02  3.74752725161E-01
 188   8  20    6 C     4.33128291497E-01  4.71977194693E-01  5.83755663362E-02
 189   8  21    6 C     5.83755663362E-02  4.33128291497E-01  4.71977194693E-01
 190   8  22    6 C    -4.13601628357E-01  2.80228053067E-02  4.61151096804E-01
 191   8  23    6 C     4.61151096804E-01 -4.13601628357E-01  2.80228053067E-02
 192   8  24    6 C    -8.63983716429E-02  3.74752725161E-01  4.41624433664E-01

 193   9   1    7 N     3.87450121714E-01 -4.31115752296E-01 -4.82306971298E-01
 194   9   2    7 N    -4.48808780998E-01 -1.30242906988E-01 -1.76930287016E-02
 195   9   3    7 N     1.12549878286E-01 -3.69757093012E-01  1.81434125990E-01
 196   9   4    7 N    -5.11912190024E-02 -6.88842477040E-02  3.18565874010E-01
 197   9   5    7 N    -4.82306971298E-01  3.87450121714E-01 -4.31115752296E-01
 198   9   6    7 N    -4.31115752296E-01 -4.82306971298E-01  3.87450121714E-01
 199   9   7    7 N     3.18565874010E-01 -5.11912190024E-02 -6.88842477040E-02
 200   9   8    7 N    -1.30242906988E-01 -1.76930287016E-02 -4.48808780998E-01
 201   9   9    7 N    -1.76930287016E-02 -4.48808780998E-01 -1.30242906988E-01
 202   9  10    7 N    -3.69757093012E-01  1.81434125990E-01  1.12549878286E-01
 203   9  11    7 N     1.81434125990E-01  1.12549878286E-01 -3.69757093012E-01
 204   9  12    7 N    -6.88842477040E-02  3.18565874010E-01 -5.11912190024E-02
 205   9  13    7 N     6.88842477040E-02 -1.12549878286E-01  1.76930287016E-02
 206   9  14    7 N     3.69757093012E-01  5.11912190024E-02  4.82306971298E-01
 207   9  15    7 N     1.30242906988E-01 -3.87450121714E-01 -3.18565874010E-01
 208   9  16    7 N     4.31115752296E-01  4.48808780998E-01 -1.81434125990E-01
 209   9  17    7 N    -1.12549878286E-01  1.76930287016E-02  6.88842477040E-02
 210   9  18    7 N     1.76930287016E-02  6.88842477040E-02 -1.12549878286E-01
 211   9  19    7 N     4.48808780998E-01 -1.81434125990E-01  4.31115752296E-01
 212   9  20    7 N     4.82306971298E-01  3.69757093012E-01  5.11912190024E-02
 213   9  21    7 N     5.11912190024E-02  4.82306971298E-01  3.69757093012E-01
 214   9  22    7 N    -3.18565874010E-01  1.30242906988E-01 -3.87450121714E-01
 215   9  23    7 N    -3.87450121714E-01 -3.18565874010E-01  1.30242906988E-01
 216   9  24    7 N    -1.81434125990E-01  4.31115752296E-01  4.48808780998E-01

 217  10   1    7 N    -4.06991265885E-01 -3.77256087254E-01 -4.68779634799E-01
 218  10   2    7 N    -4.08476452455E-01  6.17883689140E-02 -3.12203652011E-02
 219  10   3    7 N    -9.30087341151E-02  4.38211631086E-01  2.97351786309E-02
 220  10   4    7 N    -9.15235475449E-02 -1.22743912746E-01  4.70264821369E-01
 221  10   5    7 N    -4.68779634799E-01 -4.06991265885E-01 -3.77256087254E-01
 222  10   6    7 N    -3.77256087254E-01 -4.68779634799E-01 -4.06991265885E-01
 223  10   7    7 N     4.70264821369E-01 -9.15235475449E-02 -1.22743912746E-01
 224  10   8    7 N     6.17883689140E-02 -3.12203652011E-02 -4.08476452455E-01
 225  10   9    7 N    -3.12203652011E-02 -4.08476452455E-01  6.17883689140E-02
 226  10  10    7 N     4.38211631086E-01  2.97351786309E-02 -9.30087341151E-02
 227  10  11    7 N     2.97351786309E-02 -9.30087341151E-02  4.38211631086E-01
 228  10  12    7 N    -1.22743912746E-01  4.70264821369E-01 -9.15235475449E-02
 229  10  13    7 N     1.22743912746E-01  9.30087341151E-02  3.12203652011E-02
 230  10  14    7 N    -4.38211631086E-01  9.15235475449E-02  4.68779634799E-01
 231  10  15    7 N    -6.17883689140E-02  4.06991265885E-01 -4.70264821369E-01
 232  10  16    7 N     3.77256087254E-01  4.08476452455E-01 -2.97351786309E-02
 233  10  17    7 N     9.30087341151E-02  3.12203652011E-02  1.22743912746E-01
 234  10  18    7 N     3.12203652011E-02  1.22743912746E-01  9.30087341151E-02
 235  10  19    7 N     4.08476452455E-01 -2.97351786309E-02  3.77256087254E-01
 236  10  20    7 N     4.68779634799E-01 -4.38211631086E-01  9.15235475449E-02
 237  10  21    7 N     9.15235475449E-02  4.68779634799E-01 -4.38211631086E-01
 238  10  22    7 N    -4.70264821369E-01 -6.17883689140E-02  4.06991265885E-01
 239  10  23    7 N     4.06991265885E-01 -4.70264821369E-01 -6.17883689140E-02
 240  10  24    7 N    -2.97351786309E-02  3.77256087254E-01  4.08476452455E-01

 241  11   1   25 MN    6.15425016456E-02 -7.13457990629E-02  1.29076329276E-01
 242  11   2   25 MN    2.99577871661E-01 -6.75338276306E-02  3.70923670724E-01
 243  11   3   25 MN    4.38457498354E-01 -4.32466172369E-01 -1.32888300709E-01
 244  11   4   25 MN    2.00422128339E-01 -4.28654200937E-01 -3.67111699291E-01
 245  11   5   25 MN    1.29076329276E-01  6.15425016456E-02 -7.13457990629E-02
 246  11   6   25 MN   -7.13457990629E-02  1.29076329276E-01  6.15425016456E-02
 247  11   7   25 MN   -3.67111699291E-01  2.00422128339E-01 -4.28654200937E-01
 248  11   8   25 MN   -6.75338276306E-02  3.70923670724E-01  2.99577871661E-01
 249  11   9   25 MN    3.70923670724E-01  2.99577871661E-01 -6.75338276306E-02
 250  11  10   25 MN   -4.32466172369E-01 -1.32888300709E-01  4.38457498354E-01
 251  11  11   25 MN   -1.32888300709E-01  4.38457498354E-01 -4.32466172369E-01
 252  11  12   25 MN   -4.28654200937E-01 -3.67111699291E-01  2.00422128339E-01
 253  11  13   25 MN    4.28654200937E-01 -4.38457498354E-01 -3.70923670724E-01
 254  11  14   25 MN    4.32466172369E-01 -2.00422128339E-01 -1.29076329276E-01
 255  11  15   25 MN    6.75338276306E-02 -6.15425016456E-02  3.67111699291E-01
 256  11  16   25 MN    7.13457990629E-02 -2.99577871661E-01  1.32888300709E-01
 257  11  17   25 MN   -4.38457498354E-01 -3.70923670724E-01  4.28654200937E-01
 258  11  18   25 MN   -3.70923670724E-01  4.28654200937E-01 -4.38457498354E-01
 259  11  19   25 MN   -2.99577871661E-01  1.32888300709E-01  7.13457990629E-02
 260  11  20   25 MN   -1.29076329276E-01  4.32466172369E-01 -2.00422128339E-01
 261  11  21   25 MN   -2.00422128339E-01 -1.29076329276E-01  4.32466172369E-01
 262  11  22   25 MN    3.67111699291E-01  6.75338276306E-02 -6.15425016456E-02
 263  11  23   25 MN   -6.15425016456E-02  3.67111699291E-01  6.75338276306E-02
 264  11  24   25 MN    1.32888300709E-01  7.13457990629E-02 -2.99577871661E-01

 265  12   1   17 CL    2.84188115700E-03 -2.13601566448E-01  1.15919093014E-01
 266  12   2   17 CL    1.70479340537E-01 -1.13077211857E-01  3.84080906986E-01
 267  12   3   17 CL    4.97158118843E-01 -3.86922788143E-01 -2.16443447605E-01
 268  12   4   17 CL    3.29520659463E-01 -2.86398433552E-01 -2.83556552395E-01
 269  12   5   17 CL    1.15919093014E-01  2.84188115700E-03 -2.13601566448E-01
 270  12   6   17 CL   -2.13601566448E-01  1.15919093014E-01  2.84188115700E-03
 271  12   7   17 CL   -2.83556552395E-01  3.29520659463E-01 -2.86398433552E-01
 272  12   8   17 CL   -1.13077211857E-01  3.84080906986E-01  1.70479340537E-01
 273  12   9   17 CL    3.84080906986E-01  1.70479340537E-01 -1.13077211857E-01
 274  12  10   17 CL   -3.86922788143E-01 -2.16443447605E-01  4.97158118843E-01
 275  12  11   17 CL   -2.16443447605E-01  4.97158118843E-01 -3.86922788143E-01
 276  12  12   17 CL   -2.86398433552E-01 -2.83556552395E-01  3.29520659463E-01
 277  12  13   17 CL    2.86398433552E-01 -4.97158118843E-01 -3.84080906986E-01
 278  12  14   17 CL    3.86922788143E-01 -3.29520659463E-01 -1.15919093014E-01
 279  12  15   17 CL    1.13077211857E-01 -2.84188115700E-03  2.83556552395E-01
 280  12  16   17 CL    2.13601566448E-01 -1.70479340537E-01  2.16443447605E-01
 281  12  17   17 CL   -4.97158118843E-01 -3.84080906986E-01  2.86398433552E-01
 282  12  18   17 CL   -3.84080906986E-01  2.86398433552E-01 -4.97158118843E-01
 283  12  19   17 CL   -1.70479340537E-01  2.16443447605E-01  2.13601566448E-01
 284  12  20   17 CL   -1.15919093014E-01  3.86922788143E-01 -3.29520659463E-01
 285  12  21   17 CL   -3.29520659463E-01 -1.15919093014E-01  3.86922788143E-01
 286  12  22   17 CL    2.83556552395E-01  1.13077211857E-01 -2.84188115700E-03
 287  12  23   17 CL   -2.84188115700E-03  2.83556552395E-01  1.13077211857E-01
 288  12  24   17 CL    2.16443447605E-01  2.13601566448E-01 -1.70479340537E-01

 289  13   1    6 C     2.50000000000E-01 -3.75000000000E-01  3.75000000000E-01
 290  13   2    6 C    -2.50000000000E-01 -1.25000000000E-01  1.25000000000E-01
 291  13   3    6 C     3.75000000000E-01  2.50000000000E-01 -3.75000000000E-01
 292  13   4    6 C    -3.75000000000E-01  3.75000000000E-01  2.50000000000E-01
 293  13   5    6 C     1.25000000000E-01 -2.50000000000E-01 -1.25000000000E-01
 294  13   6    6 C    -1.25000000000E-01  1.25000000000E-01 -2.50000000000E-01

 NUMBER OF SYMMETRY OPERATORS         :   24
 *******************************************************************************
 * GEOMETRY EDITING - INPUT COORDINATES ARE GIVEN IN ANGSTROM         
 *******************************************************************************

 GEOMETRY NOW FULLY CONSISTENT WITH THE GROUP

 GCALCO - MAX INDICES DIRECT LATTICE VECTOR    14    14    14
 NO.OF VECTORS CREATED 6999 STARS  122 RMAX   380.94480 BOHR

 GEOMETRY FOR WAVE FUNCTION - DIMENSIONALITY OF THE SYSTEM    3
 (NON PERIODIC DIRECTION: LATTICE PARAMETER FORMALLY SET TO 500)
 *******************************************************************************
 LATTICE PARAMETERS (ANGSTROMS AND DEGREES) - BOHR = 0.5291772083 ANGSTROM
 PRIMITIVE CELL - CENTRING CODE 6/0 VOLUME=  4878.367698 - DENSITY  1.609 g/cm^3
         A              B              C           ALPHA      BETA       GAMMA 
    18.50541408    18.50541408    18.50541408   109.471221 109.471221 109.471221
 *******************************************************************************
 ATOMS IN THE ASYMMETRIC UNIT   13 - ATOMS IN THE UNIT CELL:  294
     ATOM                 X/A                 Y/B                 Z/C    
 *******************************************************************************
      1 T   6 C     3.110011871067E-01 -4.442820797760E-01  4.611565258453E-01
      2 F   6 C    -4.054386056213E-01 -1.501553387386E-01  3.884347415470E-02
      3 F   6 C     1.889988128933E-01 -3.498446612614E-01  2.447167331173E-01
      4 F   6 C    -9.456139437870E-02 -5.571792022400E-02  2.552832668827E-01
      5 F   6 C     4.611565258453E-01  3.110011871067E-01 -4.442820797760E-01
      6 F   6 C    -4.442820797760E-01  4.611565258453E-01  3.110011871067E-01
      7 F   6 C     2.552832668827E-01 -9.456139437870E-02 -5.571792022400E-02
      8 F   6 C    -1.501553387386E-01  3.884347415470E-02 -4.054386056213E-01
      9 F   6 C     3.884347415470E-02 -4.054386056213E-01 -1.501553387386E-01
     10 F   6 C    -3.498446612614E-01  2.447167331173E-01  1.889988128933E-01
     11 F   6 C     2.447167331173E-01  1.889988128933E-01 -3.498446612614E-01
     12 F   6 C    -5.571792022400E-02  2.552832668827E-01 -9.456139437870E-02
     13 F   6 C     5.571792022400E-02 -1.889988128933E-01 -3.884347415470E-02
     14 F   6 C     3.498446612614E-01  9.456139437870E-02 -4.611565258453E-01
     15 F   6 C     1.501553387386E-01 -3.110011871067E-01 -2.552832668827E-01
     16 F   6 C     4.442820797760E-01  4.054386056213E-01 -2.447167331173E-01
     17 F   6 C    -1.889988128933E-01 -3.884347415470E-02  5.571792022400E-02
     18 F   6 C    -3.884347415470E-02  5.571792022400E-02 -1.889988128933E-01
     19 F   6 C     4.054386056213E-01 -2.447167331173E-01  4.442820797760E-01
     20 F   6 C    -4.611565258453E-01  3.498446612614E-01  9.456139437870E-02
     21 F   6 C     9.456139437870E-02 -4.611565258453E-01  3.498446612614E-01
     22 F   6 C    -2.552832668827E-01  1.501553387386E-01 -3.110011871067E-01
     23 F   6 C    -3.110011871067E-01 -2.552832668827E-01  1.501553387386E-01
     24 F   6 C    -2.447167331173E-01  4.442820797760E-01  4.054386056213E-01
     25 T   1 H     2.553045764073E-01 -4.770598383361E-01  4.683182752120E-01
     26 F   1 H    -4.453781135481E-01 -2.130136988047E-01  3.168172478800E-02
     27 F   1 H     2.446954235927E-01 -2.869863011953E-01  2.676355852566E-01
     28 F   1 H    -5.462188645190E-02 -2.294016166390E-02  2.323644147434E-01
     29 F   1 H     4.683182752120E-01  2.553045764073E-01 -4.770598383361E-01
     30 F   1 H    -4.770598383361E-01  4.683182752120E-01  2.553045764073E-01
     31 F   1 H     2.323644147434E-01 -5.462188645190E-02 -2.294016166390E-02
     32 F   1 H    -2.130136988047E-01  3.168172478800E-02 -4.453781135481E-01
     33 F   1 H     3.168172478800E-02 -4.453781135481E-01 -2.130136988047E-01
     34 F   1 H    -2.869863011953E-01  2.676355852566E-01  2.446954235927E-01
     35 F   1 H     2.676355852566E-01  2.446954235927E-01 -2.869863011953E-01
     36 F   1 H    -2.294016166390E-02  2.323644147434E-01 -5.462188645190E-02
     37 F   1 H     2.294016166390E-02 -2.446954235927E-01 -3.168172478800E-02
     38 F   1 H     2.869863011953E-01  5.462188645190E-02 -4.683182752120E-01
     39 F   1 H     2.130136988047E-01 -2.553045764073E-01 -2.323644147434E-01
     40 F   1 H     4.770598383361E-01  4.453781135481E-01 -2.676355852566E-01
     41 F   1 H    -2.446954235927E-01 -3.168172478800E-02  2.294016166390E-02
     42 F   1 H    -3.168172478800E-02  2.294016166390E-02 -2.446954235927E-01
     43 F   1 H     4.453781135481E-01 -2.676355852566E-01  4.770598383361E-01
     44 F   1 H    -4.683182752120E-01  2.869863011953E-01  5.462188645190E-02
     45 F   1 H     5.462188645190E-02 -4.683182752120E-01  2.869863011953E-01
     46 F   1 H    -2.323644147434E-01  2.130136988047E-01 -2.553045764073E-01
     47 F   1 H    -2.553045764073E-01 -2.323644147434E-01  2.130136988047E-01
     48 F   1 H    -2.676355852566E-01  4.770598383361E-01  4.453781135481E-01
     49 T   6 C     3.043198000634E-01 -4.192361643447E-01  3.963279027437E-01
     50 F   6 C    -3.155640670883E-01 -9.200810268030E-02  1.036720972563E-01
     51 F   6 C     1.956801999367E-01 -4.079918973197E-01  2.764440355920E-01
     52 F   6 C    -1.844359329117E-01 -8.076383565530E-02  2.235559644081E-01
     53 F   6 C     3.963279027437E-01  3.043198000634E-01 -4.192361643447E-01
     54 F   6 C    -4.192361643447E-01  3.963279027437E-01  3.043198000634E-01
     55 F   6 C     2.235559644081E-01 -1.844359329117E-01 -8.076383565530E-02
     56 F   6 C    -9.200810268030E-02  1.036720972564E-01 -3.155640670884E-01
     57 F   6 C     1.036720972563E-01 -3.155640670883E-01 -9.200810268030E-02
     58 F   6 C    -4.079918973197E-01  2.764440355920E-01  1.956801999367E-01
     59 F   6 C     2.764440355920E-01  1.956801999367E-01 -4.079918973197E-01
     60 F   6 C    -8.076383565530E-02  2.235559644081E-01 -1.844359329117E-01
     61 F   6 C     8.076383565530E-02 -1.956801999366E-01 -1.036720972563E-01
     62 F   6 C     4.079918973197E-01  1.844359329117E-01 -3.963279027436E-01
     63 F   6 C     9.200810268030E-02 -3.043198000634E-01 -2.235559644081E-01
     64 F   6 C     4.192361643447E-01  3.155640670884E-01 -2.764440355919E-01
     65 F   6 C    -1.956801999366E-01 -1.036720972563E-01  8.076383565530E-02
     66 F   6 C    -1.036720972563E-01  8.076383565530E-02 -1.956801999366E-01
     67 F   6 C     3.155640670884E-01 -2.764440355919E-01  4.192361643447E-01
     68 F   6 C    -3.963279027436E-01  4.079918973197E-01  1.844359329117E-01
     69 F   6 C     1.844359329117E-01 -3.963279027436E-01  4.079918973197E-01
     70 F   6 C    -2.235559644080E-01  9.200810268030E-02 -3.043198000633E-01
     71 F   6 C    -3.043198000633E-01 -2.235559644081E-01  9.200810268030E-02
     72 F   6 C    -2.764440355919E-01  4.192361643447E-01  3.155640670884E-01
     73 T   6 C     3.706606098828E-01 -4.104706495800E-01  3.735221441436E-01
     74 F   6 C    -2.839927937236E-01 -2.861534260800E-03  1.264778558564E-01
     75 F   6 C     1.293393901172E-01 -4.971384657392E-01  2.188687405372E-01
     76 F   6 C    -2.160072062764E-01 -8.952935042000E-02  2.811312594628E-01
     77 F   6 C     3.735221441436E-01  3.706606098828E-01 -4.104706495800E-01
     78 F   6 C    -4.104706495800E-01  3.735221441436E-01  3.706606098828E-01
     79 F   6 C     2.811312594628E-01 -2.160072062764E-01 -8.952935042000E-02
     80 F   6 C    -2.861534260800E-03  1.264778558564E-01 -2.839927937236E-01
     81 F   6 C     1.264778558564E-01 -2.839927937236E-01 -2.861534260800E-03
     82 F   6 C    -4.971384657392E-01  2.188687405372E-01  1.293393901172E-01
     83 F   6 C     2.188687405372E-01  1.293393901172E-01 -4.971384657392E-01
     84 F   6 C    -8.952935042000E-02  2.811312594628E-01 -2.160072062764E-01
     85 F   6 C     8.952935042000E-02 -1.293393901172E-01 -1.264778558564E-01
     86 F   6 C     4.971384657392E-01  2.160072062764E-01 -3.735221441436E-01
     87 F   6 C     2.861534260800E-03 -3.706606098828E-01 -2.811312594628E-01
     88 F   6 C     4.104706495800E-01  2.839927937236E-01 -2.188687405372E-01
     89 F   6 C    -1.293393901172E-01 -1.264778558564E-01  8.952935042000E-02
     90 F   6 C    -1.264778558564E-01  8.952935042000E-02 -1.293393901172E-01
     91 F   6 C     2.839927937236E-01 -2.188687405372E-01  4.104706495800E-01
     92 F   6 C    -3.735221441436E-01  4.971384657392E-01  2.160072062764E-01
     93 F   6 C     2.160072062764E-01 -3.735221441436E-01  4.971384657392E-01
     94 F   6 C    -2.811312594628E-01  2.861534260800E-03 -3.706606098828E-01
     95 F   6 C    -3.706606098828E-01 -2.811312594628E-01  2.861534260800E-03
     96 F   6 C    -2.188687405372E-01  4.104706495800E-01  2.839927937236E-01
     97 T   1 H     3.639450870468E-01 -4.075380871011E-01  3.137907685777E-01
     98 F   1 H    -2.213288556788E-01  5.015431846910E-02  1.862092314223E-01
     99 F   1 H     1.360549129532E-01  4.498456815309E-01  2.285168258521E-01
    100 F   1 H    -2.786711443212E-01 -9.246191289890E-02  2.714831741479E-01
    101 F   1 H     3.137907685777E-01  3.639450870468E-01 -4.075380871011E-01
    102 F   1 H    -4.075380871011E-01  3.137907685777E-01  3.639450870468E-01
    103 F   1 H     2.714831741479E-01 -2.786711443212E-01 -9.246191289890E-02
    104 F   1 H     5.015431846910E-02  1.862092314223E-01 -2.213288556788E-01
    105 F   1 H     1.862092314223E-01 -2.213288556788E-01  5.015431846910E-02
    106 F   1 H     4.498456815309E-01  2.285168258521E-01  1.360549129532E-01
    107 F   1 H     2.285168258521E-01  1.360549129532E-01  4.498456815309E-01
    108 F   1 H    -9.246191289890E-02  2.714831741479E-01 -2.786711443212E-01
    109 F   1 H     9.246191289890E-02 -1.360549129532E-01 -1.862092314223E-01
    110 F   1 H    -4.498456815309E-01  2.786711443212E-01 -3.137907685777E-01
    111 F   1 H    -5.015431846910E-02 -3.639450870468E-01 -2.714831741479E-01
    112 F   1 H     4.075380871011E-01  2.213288556788E-01 -2.285168258521E-01
    113 F   1 H    -1.360549129532E-01 -1.862092314223E-01  9.246191289890E-02
    114 F   1 H    -1.862092314223E-01  9.246191289890E-02 -1.360549129532E-01
    115 F   1 H     2.213288556788E-01 -2.285168258521E-01  4.075380871011E-01
    116 F   1 H    -3.137907685777E-01 -4.498456815309E-01  2.786711443212E-01
    117 F   1 H     2.786711443212E-01 -3.137907685777E-01 -4.498456815309E-01
    118 F   1 H    -2.714831741479E-01 -5.015431846910E-02 -3.639450870468E-01
    119 F   1 H    -3.639450870468E-01 -2.714831741479E-01 -5.015431846910E-02
    120 F   1 H    -2.285168258521E-01  4.075380871011E-01  2.213288556788E-01
    121 T   7 N     4.473903440369E-01 -4.005049814958E-01  4.265860382317E-01
    122 F   7 N    -3.270910197275E-01  2.080430580520E-02  7.341396176830E-02
    123 F   7 N     5.260965596310E-02  4.791956941948E-01  1.521046744673E-01
    124 F   7 N    -1.729089802725E-01 -9.949501850420E-02  3.478953255327E-01
    125 F   7 N     4.265860382317E-01  4.473903440369E-01 -4.005049814958E-01
    126 F   7 N    -4.005049814958E-01  4.265860382317E-01  4.473903440369E-01
    127 F   7 N     3.478953255327E-01 -1.729089802725E-01 -9.949501850420E-02
    128 F   7 N     2.080430580520E-02  7.341396176830E-02 -3.270910197275E-01
    129 F   7 N     7.341396176830E-02 -3.270910197275E-01  2.080430580520E-02
    130 F   7 N     4.791956941948E-01  1.521046744673E-01  5.260965596310E-02
    131 F   7 N     1.521046744673E-01  5.260965596310E-02  4.791956941948E-01
    132 F   7 N    -9.949501850420E-02  3.478953255327E-01 -1.729089802725E-01
    133 F   7 N     9.949501850420E-02 -5.260965596310E-02 -7.341396176830E-02
    134 F   7 N    -4.791956941948E-01  1.729089802725E-01 -4.265860382317E-01
    135 F   7 N    -2.080430580520E-02 -4.473903440369E-01 -3.478953255327E-01
    136 F   7 N     4.005049814958E-01  3.270910197275E-01 -1.521046744673E-01
    137 F   7 N    -5.260965596310E-02 -7.341396176830E-02  9.949501850420E-02
    138 F   7 N    -7.341396176830E-02  9.949501850420E-02 -5.260965596310E-02
    139 F   7 N     3.270910197275E-01 -1.521046744673E-01  4.005049814958E-01
    140 F   7 N    -4.265860382317E-01 -4.791956941948E-01  1.729089802725E-01
    141 F   7 N     1.729089802725E-01 -4.265860382317E-01 -4.791956941948E-01
    142 F   7 N    -3.478953255327E-01 -2.080430580520E-02 -4.473903440369E-01
    143 F   7 N    -4.473903440369E-01 -3.478953255327E-01 -2.080430580520E-02
    144 F   7 N    -1.521046744673E-01  4.005049814958E-01  3.270910197275E-01
    145 T   6 C     4.572262101656E-01 -3.946296105441E-01 -4.944451207305E-01
    146 F   6 C    -4.001844898136E-01 -4.832866910390E-02 -5.554879269500E-03
    147 F   6 C     4.277378983440E-02 -4.516713308961E-01  1.481441792903E-01
    148 F   6 C    -9.981551018640E-02 -1.053703894559E-01  3.518558207097E-01
    149 F   6 C    -4.944451207305E-01  4.572262101656E-01 -3.946296105441E-01
    150 F   6 C    -3.946296105441E-01 -4.944451207305E-01  4.572262101656E-01
    151 F   6 C     3.518558207097E-01 -9.981551018640E-02 -1.053703894559E-01
    152 F   6 C    -4.832866910390E-02 -5.554879269500E-03 -4.001844898136E-01
    153 F   6 C    -5.554879269500E-03 -4.001844898136E-01 -4.832866910390E-02
    154 F   6 C    -4.516713308961E-01  1.481441792903E-01  4.277378983440E-02
    155 F   6 C     1.481441792903E-01  4.277378983440E-02 -4.516713308961E-01
    156 F   6 C    -1.053703894559E-01  3.518558207097E-01 -9.981551018640E-02
    157 F   6 C     1.053703894559E-01 -4.277378983440E-02  5.554879269500E-03
    158 F   6 C     4.516713308961E-01  9.981551018640E-02  4.944451207305E-01
    159 F   6 C     4.832866910390E-02 -4.572262101656E-01 -3.518558207097E-01
    160 F   6 C     3.946296105441E-01  4.001844898136E-01 -1.481441792903E-01
    161 F   6 C    -4.277378983440E-02  5.554879269500E-03  1.053703894559E-01
    162 F   6 C     5.554879269500E-03  1.053703894559E-01 -4.277378983440E-02
    163 F   6 C     4.001844898136E-01 -1.481441792903E-01  3.946296105441E-01
    164 F   6 C     4.944451207305E-01  4.516713308961E-01  9.981551018640E-02
    165 F   6 C     9.981551018640E-02  4.944451207305E-01  4.516713308961E-01
    166 F   6 C    -3.518558207097E-01  4.832866910390E-02 -4.572262101656E-01
    167 F   6 C    -4.572262101656E-01 -3.518558207097E-01  4.832866910390E-02
    168 F   6 C    -1.481441792903E-01  3.946296105441E-01  4.001844898136E-01
    169 T   6 C    -4.611510968038E-01 -3.747527251609E-01 -4.331282914971E-01
    170 F   6 C    -4.416244336638E-01 -2.802280530670E-02 -6.687170850290E-02
    171 F   6 C    -3.884890319620E-02 -4.719771946933E-01  8.639837164290E-02
    172 F   6 C    -5.837556633620E-02 -1.252472748391E-01  4.136016283571E-01
    173 F   6 C    -4.331282914971E-01 -4.611510968038E-01 -3.747527251609E-01
    174 F   6 C    -3.747527251609E-01 -4.331282914971E-01 -4.611510968038E-01
    175 F   6 C     4.136016283571E-01 -5.837556633620E-02 -1.252472748391E-01
    176 F   6 C    -2.802280530670E-02 -6.687170850290E-02 -4.416244336638E-01
    177 F   6 C    -6.687170850290E-02 -4.416244336638E-01 -2.802280530670E-02
    178 F   6 C    -4.719771946933E-01  8.639837164290E-02 -3.884890319620E-02
    179 F   6 C     8.639837164290E-02 -3.884890319620E-02 -4.719771946933E-01
    180 F   6 C    -1.252472748391E-01  4.136016283571E-01 -5.837556633620E-02
    181 F   6 C     1.252472748391E-01  3.884890319620E-02  6.687170850290E-02
    182 F   6 C     4.719771946933E-01  5.837556633620E-02  4.331282914971E-01
    183 F   6 C     2.802280530670E-02  4.611510968038E-01 -4.136016283571E-01
    184 F   6 C     3.747527251609E-01  4.416244336638E-01 -8.639837164290E-02
    185 F   6 C     3.884890319620E-02  6.687170850290E-02  1.252472748391E-01
    186 F   6 C     6.687170850290E-02  1.252472748391E-01  3.884890319620E-02
    187 F   6 C     4.416244336638E-01 -8.639837164290E-02  3.747527251609E-01
    188 F   6 C     4.331282914971E-01  4.719771946933E-01  5.837556633620E-02
    189 F   6 C     5.837556633620E-02  4.331282914971E-01  4.719771946933E-01
    190 F   6 C    -4.136016283571E-01  2.802280530670E-02  4.611510968038E-01
    191 F   6 C     4.611510968038E-01 -4.136016283571E-01  2.802280530670E-02
    192 F   6 C    -8.639837164290E-02  3.747527251609E-01  4.416244336638E-01
    193 T   7 N     3.874501217138E-01 -4.311157522960E-01 -4.823069712984E-01
    194 F   7 N    -4.488087809976E-01 -1.302429069878E-01 -1.769302870160E-02
    195 F   7 N     1.125498782862E-01 -3.697570930122E-01  1.814341259902E-01
    196 F   7 N    -5.119121900240E-02 -6.888424770400E-02  3.185658740098E-01
    197 F   7 N    -4.823069712984E-01  3.874501217138E-01 -4.311157522960E-01
    198 F   7 N    -4.311157522960E-01 -4.823069712984E-01  3.874501217138E-01
    199 F   7 N     3.185658740098E-01 -5.119121900240E-02 -6.888424770400E-02
    200 F   7 N    -1.302429069878E-01 -1.769302870160E-02 -4.488087809976E-01
    201 F   7 N    -1.769302870160E-02 -4.488087809976E-01 -1.302429069878E-01
    202 F   7 N    -3.697570930122E-01  1.814341259902E-01  1.125498782862E-01
    203 F   7 N     1.814341259902E-01  1.125498782862E-01 -3.697570930122E-01
    204 F   7 N    -6.888424770400E-02  3.185658740098E-01 -5.119121900240E-02
    205 F   7 N     6.888424770400E-02 -1.125498782862E-01  1.769302870160E-02
    206 F   7 N     3.697570930122E-01  5.119121900240E-02  4.823069712984E-01
    207 F   7 N     1.302429069878E-01 -3.874501217138E-01 -3.185658740098E-01
    208 F   7 N     4.311157522960E-01  4.488087809976E-01 -1.814341259902E-01
    209 F   7 N    -1.125498782862E-01  1.769302870160E-02  6.888424770400E-02
    210 F   7 N     1.769302870160E-02  6.888424770400E-02 -1.125498782862E-01
    211 F   7 N     4.488087809976E-01 -1.814341259902E-01  4.311157522960E-01
    212 F   7 N     4.823069712984E-01  3.697570930122E-01  5.119121900240E-02
    213 F   7 N     5.119121900240E-02  4.823069712984E-01  3.697570930122E-01
    214 F   7 N    -3.185658740098E-01  1.302429069878E-01 -3.874501217138E-01
    215 F   7 N    -3.874501217138E-01 -3.185658740098E-01  1.302429069878E-01
    216 F   7 N    -1.814341259902E-01  4.311157522960E-01  4.488087809976E-01
    217 T   7 N    -4.069912658849E-01 -3.772560872540E-01 -4.687796347989E-01
    218 F   7 N    -4.084764524551E-01  6.178836891400E-02 -3.122036520110E-02
    219 F   7 N    -9.300873411510E-02  4.382116310860E-01  2.973517863090E-02
    220 F   7 N    -9.152354754490E-02 -1.227439127460E-01  4.702648213691E-01
    221 F   7 N    -4.687796347989E-01 -4.069912658849E-01 -3.772560872540E-01
    222 F   7 N    -3.772560872540E-01 -4.687796347989E-01 -4.069912658849E-01
    223 F   7 N     4.702648213691E-01 -9.152354754490E-02 -1.227439127460E-01
    224 F   7 N     6.178836891400E-02 -3.122036520110E-02 -4.084764524551E-01
    225 F   7 N    -3.122036520110E-02 -4.084764524551E-01  6.178836891400E-02
    226 F   7 N     4.382116310860E-01  2.973517863090E-02 -9.300873411510E-02
    227 F   7 N     2.973517863090E-02 -9.300873411510E-02  4.382116310860E-01
    228 F   7 N    -1.227439127460E-01  4.702648213691E-01 -9.152354754490E-02
    229 F   7 N     1.227439127460E-01  9.300873411510E-02  3.122036520110E-02
    230 F   7 N    -4.382116310860E-01  9.152354754490E-02  4.687796347989E-01
    231 F   7 N    -6.178836891400E-02  4.069912658849E-01 -4.702648213691E-01
    232 F   7 N     3.772560872540E-01  4.084764524551E-01 -2.973517863090E-02
    233 F   7 N     9.300873411510E-02  3.122036520110E-02  1.227439127460E-01
    234 F   7 N     3.122036520110E-02  1.227439127460E-01  9.300873411510E-02
    235 F   7 N     4.084764524551E-01 -2.973517863090E-02  3.772560872540E-01
    236 F   7 N     4.687796347989E-01 -4.382116310860E-01  9.152354754490E-02
    237 F   7 N     9.152354754490E-02  4.687796347989E-01 -4.382116310860E-01
    238 F   7 N    -4.702648213691E-01 -6.178836891400E-02  4.069912658849E-01
    239 F   7 N     4.069912658849E-01 -4.702648213691E-01 -6.178836891400E-02
    240 F   7 N    -2.973517863090E-02  3.772560872540E-01  4.084764524551E-01
    241 T  25 MN    6.154250164564E-02 -7.134579906289E-02  1.290763292763E-01
    242 F  25 MN    2.995778716608E-01 -6.753382763063E-02  3.709236707237E-01
    243 F  25 MN    4.384574983544E-01 -4.324661723694E-01 -1.328883007085E-01
    244 F  25 MN    2.004221283392E-01 -4.286542009371E-01 -3.671116992915E-01
    245 F  25 MN    1.290763292763E-01  6.154250164564E-02 -7.134579906289E-02
    246 F  25 MN   -7.134579906289E-02  1.290763292763E-01  6.154250164564E-02
    247 F  25 MN   -3.671116992915E-01  2.004221283392E-01 -4.286542009371E-01
    248 F  25 MN   -6.753382763063E-02  3.709236707237E-01  2.995778716608E-01
    249 F  25 MN    3.709236707237E-01  2.995778716608E-01 -6.753382763063E-02
    250 F  25 MN   -4.324661723694E-01 -1.328883007085E-01  4.384574983544E-01
    251 F  25 MN   -1.328883007085E-01  4.384574983544E-01 -4.324661723694E-01
    252 F  25 MN   -4.286542009371E-01 -3.671116992915E-01  2.004221283392E-01
    253 F  25 MN    4.286542009371E-01 -4.384574983544E-01 -3.709236707237E-01
    254 F  25 MN    4.324661723694E-01 -2.004221283392E-01 -1.290763292763E-01
    255 F  25 MN    6.753382763063E-02 -6.154250164564E-02  3.671116992915E-01
    256 F  25 MN    7.134579906289E-02 -2.995778716608E-01  1.328883007085E-01
    257 F  25 MN   -4.384574983544E-01 -3.709236707237E-01  4.286542009371E-01
    258 F  25 MN   -3.709236707237E-01  4.286542009371E-01 -4.384574983544E-01
    259 F  25 MN   -2.995778716608E-01  1.328883007085E-01  7.134579906289E-02
    260 F  25 MN   -1.290763292763E-01  4.324661723694E-01 -2.004221283392E-01
    261 F  25 MN   -2.004221283392E-01 -1.290763292763E-01  4.324661723694E-01
    262 F  25 MN    3.671116992915E-01  6.753382763063E-02 -6.154250164564E-02
    263 F  25 MN   -6.154250164564E-02  3.671116992915E-01  6.753382763063E-02
    264 F  25 MN    1.328883007085E-01  7.134579906289E-02 -2.995778716608E-01
    265 T  17 CL    2.841881157000E-03 -2.136015664484E-01  1.159190930142E-01
    266 F  17 CL    1.704793405374E-01 -1.130772118572E-01  3.840809069858E-01
    267 F  17 CL    4.971581188430E-01 -3.869227881428E-01 -2.164434476054E-01
    268 F  17 CL    3.295206594626E-01 -2.863984335516E-01 -2.835565523946E-01
    269 F  17 CL    1.159190930142E-01  2.841881157000E-03 -2.136015664484E-01
    270 F  17 CL   -2.136015664484E-01  1.159190930142E-01  2.841881157000E-03
    271 F  17 CL   -2.835565523946E-01  3.295206594626E-01 -2.863984335516E-01
    272 F  17 CL   -1.130772118572E-01  3.840809069858E-01  1.704793405374E-01
    273 F  17 CL    3.840809069858E-01  1.704793405374E-01 -1.130772118572E-01
    274 F  17 CL   -3.869227881428E-01 -2.164434476054E-01  4.971581188430E-01
    275 F  17 CL   -2.164434476054E-01  4.971581188430E-01 -3.869227881428E-01
    276 F  17 CL   -2.863984335516E-01 -2.835565523946E-01  3.295206594626E-01
    277 F  17 CL    2.863984335516E-01 -4.971581188430E-01 -3.840809069858E-01
    278 F  17 CL    3.869227881428E-01 -3.295206594626E-01 -1.159190930142E-01
    279 F  17 CL    1.130772118572E-01 -2.841881157000E-03  2.835565523946E-01
    280 F  17 CL    2.136015664484E-01 -1.704793405374E-01  2.164434476054E-01
    281 F  17 CL   -4.971581188430E-01 -3.840809069858E-01  2.863984335516E-01
    282 F  17 CL   -3.840809069858E-01  2.863984335516E-01 -4.971581188430E-01
    283 F  17 CL   -1.704793405374E-01  2.164434476054E-01  2.136015664484E-01
    284 F  17 CL   -1.159190930142E-01  3.869227881428E-01 -3.295206594626E-01
    285 F  17 CL   -3.295206594626E-01 -1.159190930142E-01  3.869227881428E-01
    286 F  17 CL    2.835565523946E-01  1.130772118572E-01 -2.841881157000E-03
    287 F  17 CL   -2.841881157000E-03  2.835565523946E-01  1.130772118572E-01
    288 F  17 CL    2.164434476054E-01  2.136015664484E-01 -1.704793405374E-01
    289 T   6 C     2.500000000000E-01 -3.750000000000E-01  3.750000000000E-01
    290 F   6 C    -2.500000000000E-01 -1.250000000000E-01  1.250000000000E-01
    291 F   6 C     3.750000000000E-01  2.500000000000E-01 -3.750000000000E-01
    292 F   6 C    -3.750000000000E-01  3.750000000000E-01  2.500000000000E-01
    293 F   6 C     1.250000000000E-01 -2.500000000000E-01 -1.250000000000E-01
    294 F   6 C    -1.250000000000E-01  1.250000000000E-01 -2.500000000000E-01

 TRANSFORMATION MATRIX PRIMITIVE-CRYSTALLOGRAPHIC CELL
  0.0000  1.0000  1.0000  1.0000  0.0000  1.0000  1.0000  1.0000  0.0000

 *******************************************************************************
 CRYSTALLOGRAPHIC CELL (VOLUME=       9756.73539514)
         A              B              C           ALPHA      BETA       GAMMA 
    21.36821160    21.36821160    21.36821160    90.000000  90.000000  90.000000

 COORDINATES IN THE CRYSTALLOGRAPHIC CELL
     ATOM                 X/A                 Y/B                 Z/C    
 *******************************************************************************
      1 T   6 C     3.529366294813E-01  1.082198963640E-01  2.027812907427E-01
      2 F   6 C     1.470633705187E-01 -1.082198963640E-01 -2.972187092573E-01
      3 F   6 C    -1.470633705187E-01  3.917801036360E-01 -2.027812907427E-01
      4 F   6 C     1.470633705187E-01  1.082198963640E-01 -2.027812907427E-01
      5 F   6 C     2.027812907427E-01  3.529366294813E-01  1.082198963640E-01
      6 F   6 C     1.082198963640E-01  2.027812907427E-01  3.529366294813E-01
      7 F   6 C    -2.027812907427E-01  1.470633705187E-01  1.082198963640E-01
      8 F   6 C    -1.082198963640E-01 -2.972187092573E-01  1.470633705187E-01
      9 F   6 C    -2.972187092573E-01  1.470633705187E-01 -1.082198963640E-01
     10 F   6 C     3.917801036360E-01 -2.027812907427E-01 -1.470633705187E-01
     11 F   6 C    -2.027812907427E-01 -1.470633705187E-01  3.917801036360E-01
     12 F   6 C     1.082198963640E-01 -2.027812907427E-01  1.470633705187E-01
     13 F   6 C    -1.417801036360E-01  1.029366294813E-01 -4.721870925730E-02
     14 F   6 C     1.417801036360E-01  3.970633705187E-01 -4.721870925730E-02
     15 F   6 C    -3.582198963640E-01  1.029366294813E-01  4.721870925730E-02
     16 F   6 C    -1.417801036360E-01 -1.029366294813E-01 -4.527812907427E-01
     17 F   6 C     1.029366294813E-01 -4.721870925730E-02 -1.417801036360E-01
     18 F   6 C    -4.721870925730E-02 -1.417801036360E-01  1.029366294813E-01
     19 F   6 C    -1.029366294813E-01 -4.527812907427E-01 -1.417801036360E-01
     20 F   6 C    -4.721870925730E-02  1.417801036360E-01  3.970633705187E-01
     21 F   6 C     3.970633705187E-01 -4.721870925730E-02  1.417801036360E-01
     22 F   6 C     4.721870925730E-02 -3.582198963640E-01  1.029366294813E-01
     23 F   6 C     1.029366294813E-01  4.721870925730E-02 -3.582198963640E-01
     24 F   6 C    -4.527812907427E-01 -1.417801036360E-01 -1.029366294813E-01
     25 T   1 H     3.679769302343E-01  1.003413449777E-01  1.549632314296E-01
     26 F   1 H     1.320230697657E-01 -1.003413449777E-01 -3.450367685704E-01
     27 F   1 H    -1.320230697657E-01  3.996586550223E-01 -1.549632314296E-01
     28 F   1 H     1.320230697657E-01  1.003413449777E-01 -1.549632314296E-01
     29 F   1 H     1.549632314296E-01  3.679769302343E-01  1.003413449777E-01
     30 F   1 H     1.003413449777E-01  1.549632314296E-01  3.679769302343E-01
     31 F   1 H    -1.549632314296E-01  1.320230697657E-01  1.003413449777E-01
     32 F   1 H    -1.003413449777E-01 -3.450367685704E-01  1.320230697657E-01
     33 F   1 H    -3.450367685704E-01  1.320230697657E-01 -1.003413449777E-01
     34 F   1 H     3.996586550223E-01 -1.549632314296E-01 -1.320230697657E-01
     35 F   1 H    -1.549632314296E-01 -1.320230697657E-01  3.996586550223E-01
     36 F   1 H     1.003413449777E-01 -1.549632314296E-01  1.320230697657E-01
     37 F   1 H    -1.496586550223E-01  1.179769302343E-01 -9.503676857040E-02
     38 F   1 H     1.496586550223E-01  3.820230697657E-01 -9.503676857040E-02
     39 F   1 H    -3.503413449777E-01  1.179769302343E-01  9.503676857040E-02
     40 F   1 H    -1.496586550223E-01 -1.179769302343E-01 -4.049632314296E-01
     41 F   1 H     1.179769302343E-01 -9.503676857040E-02 -1.496586550223E-01
     42 F   1 H    -9.503676857040E-02 -1.496586550223E-01  1.179769302343E-01
     43 F   1 H    -1.179769302343E-01 -4.049632314296E-01 -1.496586550223E-01
     44 F   1 H    -9.503676857040E-02  1.496586550223E-01  3.820230697657E-01
     45 F   1 H     3.820230697657E-01 -9.503676857040E-02  1.496586550223E-01
     46 F   1 H     9.503676857040E-02 -3.503413449777E-01  1.179769302343E-01
     47 F   1 H     1.179769302343E-01  9.503676857040E-02 -3.503413449777E-01
     48 F   1 H    -4.049632314296E-01 -1.496586550223E-01 -1.179769302343E-01
     49 T   6 C     3.363859691678E-01  5.994193357585E-02  2.443778664875E-01
     50 F   6 C     1.636140308322E-01 -5.994193357585E-02 -2.556221335125E-01
     51 F   6 C     3.363859691678E-01 -5.994193357585E-02  2.556221335125E-01
     52 F   6 C     1.636140308322E-01  5.994193357585E-02 -2.443778664875E-01
     53 F   6 C     2.443778664875E-01  3.363859691678E-01  5.994193357585E-02
     54 F   6 C     5.994193357585E-02  2.443778664875E-01  3.363859691678E-01
     55 F   6 C    -2.443778664875E-01  1.636140308322E-01  5.994193357585E-02
     56 F   6 C    -5.994193357585E-02 -2.556221335125E-01  1.636140308322E-01
     57 F   6 C    -2.556221335125E-01  1.636140308322E-01 -5.994193357585E-02
     58 F   6 C    -5.994193357585E-02  2.556221335125E-01  3.363859691678E-01
     59 F   6 C     2.556221335125E-01  3.363859691678E-01 -5.994193357585E-02
     60 F   6 C     5.994193357585E-02 -2.443778664875E-01  1.636140308322E-01
     61 F   6 C    -1.900580664242E-01  8.638596916780E-02 -5.622133512500E-03
     62 F   6 C     1.900580664242E-01  4.136140308322E-01 -5.622133512500E-03
     63 F   6 C    -3.099419335759E-01  8.638596916780E-02  5.622133512500E-03
     64 F   6 C     3.099419335759E-01  4.136140308322E-01  5.622133512500E-03
     65 F   6 C     8.638596916780E-02 -5.622133512500E-03 -1.900580664241E-01
     66 F   6 C    -5.622133512500E-03 -1.900580664242E-01  8.638596916780E-02
     67 F   6 C     4.136140308322E-01  5.622133512500E-03  3.099419335759E-01
     68 F   6 C    -5.622133512500E-03  1.900580664242E-01  4.136140308322E-01
     69 F   6 C     4.136140308322E-01 -5.622133512500E-03  1.900580664242E-01
     70 F   6 C     5.622133512500E-03 -3.099419335759E-01  8.638596916780E-02
     71 F   6 C     8.638596916780E-02  5.622133512500E-03 -3.099419335759E-01
     72 F   6 C     5.622133512500E-03  3.099419335759E-01  4.136140308322E-01
     73 T   6 C     2.961954423404E-01  7.732670180319E-02  2.933339080796E-01
     74 F   6 C     2.038045576596E-01 -7.732670180319E-02 -2.066660919204E-01
     75 F   6 C     2.961954423404E-01 -7.732670180319E-02  2.066660919204E-01
     76 F   6 C     2.038045576596E-01  7.732670180319E-02 -2.933339080796E-01
     77 F   6 C     2.933339080796E-01  2.961954423404E-01  7.732670180319E-02
     78 F   6 C     7.732670180319E-02  2.933339080796E-01  2.961954423404E-01
     79 F   6 C    -2.933339080796E-01  2.038045576596E-01  7.732670180319E-02
     80 F   6 C    -7.732670180319E-02 -2.066660919204E-01  2.038045576596E-01
     81 F   6 C    -2.066660919204E-01  2.038045576596E-01 -7.732670180319E-02
     82 F   6 C    -7.732670180319E-02  2.066660919204E-01  2.961954423404E-01
     83 F   6 C     2.066660919204E-01  2.961954423404E-01 -7.732670180319E-02
     84 F   6 C     7.732670180319E-02 -2.933339080796E-01  2.038045576596E-01
     85 F   6 C    -1.726732981968E-01  4.619544234040E-02  4.333390807960E-02
     86 F   6 C     1.726732981968E-01  4.538045576596E-01  4.333390807960E-02
     87 F   6 C    -3.273267018032E-01  4.619544234040E-02 -4.333390807960E-02
     88 F   6 C    -1.726732981968E-01 -4.619544234040E-02  4.566660919204E-01
     89 F   6 C     4.619544234040E-02  4.333390807960E-02 -1.726732981968E-01
     90 F   6 C     4.333390807960E-02 -1.726732981968E-01  4.619544234040E-02
     91 F   6 C    -4.619544234040E-02  4.566660919204E-01 -1.726732981968E-01
     92 F   6 C     4.333390807960E-02  1.726732981968E-01  4.538045576596E-01
     93 F   6 C     4.538045576596E-01  4.333390807960E-02  1.726732981968E-01
     94 F   6 C    -4.333390807960E-02 -3.273267018032E-01  4.619544234040E-02
     95 F   6 C     4.619544234040E-02 -4.333390807960E-02 -3.273267018032E-01
     96 F   6 C     4.566660919204E-01 -1.726732981968E-01 -4.619544234040E-02
     97 T   1 H     2.711537972149E-01  4.263697136279E-02  3.213081156840E-01
     98 F   1 H     2.288462027851E-01 -4.263697136279E-02 -1.786918843160E-01
     99 F   1 H     2.711537972149E-01 -4.263697136279E-02  1.786918843160E-01
    100 F   1 H     2.288462027851E-01  4.263697136279E-02 -3.213081156840E-01
    101 F   1 H     3.213081156840E-01  2.711537972149E-01  4.263697136279E-02
    102 F   1 H     4.263697136279E-02  3.213081156840E-01  2.711537972149E-01
    103 F   1 H    -3.213081156840E-01  2.288462027851E-01  4.263697136279E-02
    104 F   1 H    -4.263697136279E-02 -1.786918843160E-01  2.288462027851E-01
    105 F   1 H    -1.786918843160E-01  2.288462027851E-01 -4.263697136279E-02
    106 F   1 H    -4.263697136279E-02  1.786918843160E-01  2.711537972149E-01
    107 F   1 H     1.786918843160E-01  2.711537972149E-01 -4.263697136279E-02
    108 F   1 H     4.263697136279E-02 -3.213081156840E-01  2.288462027851E-01
    109 F   1 H    -2.073630286372E-01  2.115379721490E-02  7.130811568400E-02
    110 F   1 H    -2.926369713628E-01 -2.115379721490E-02 -4.286918843160E-01
    111 F   1 H    -2.926369713628E-01  2.115379721490E-02 -7.130811568400E-02
    112 F   1 H    -2.073630286372E-01 -2.115379721490E-02  4.286918843160E-01
    113 F   1 H     2.115379721490E-02  7.130811568400E-02 -2.073630286372E-01
    114 F   1 H     7.130811568400E-02 -2.073630286372E-01  2.115379721490E-02
    115 F   1 H    -2.115379721490E-02  4.286918843160E-01 -2.073630286372E-01
    116 F   1 H    -4.286918843160E-01 -2.926369713628E-01 -2.115379721490E-02
    117 F   1 H    -2.115379721490E-02 -4.286918843160E-01 -2.926369713628E-01
    118 F   1 H    -7.130811568400E-02 -2.926369713628E-01  2.115379721490E-02
    119 F   1 H     2.115379721490E-02 -7.130811568400E-02 -2.926369713628E-01
    120 F   1 H     4.286918843160E-01 -2.073630286372E-01 -2.115379721490E-02
    121 T   7 N     2.893453563495E-01  1.372406818822E-01  3.101496621547E-01
    122 F   7 N     2.106546436505E-01 -1.372406818822E-01 -1.898503378453E-01
    123 F   7 N     2.893453563495E-01 -1.372406818822E-01  1.898503378453E-01
    124 F   7 N     2.106546436505E-01  1.372406818822E-01 -3.101496621547E-01
    125 F   7 N     3.101496621547E-01  2.893453563495E-01  1.372406818822E-01
    126 F   7 N     1.372406818822E-01  3.101496621547E-01  2.893453563495E-01
    127 F   7 N    -3.101496621547E-01  2.106546436505E-01  1.372406818822E-01
    128 F   7 N    -1.372406818822E-01 -1.898503378453E-01  2.106546436505E-01
    129 F   7 N    -1.898503378453E-01  2.106546436505E-01 -1.372406818822E-01
    130 F   7 N    -1.372406818822E-01  1.898503378453E-01  2.893453563495E-01
    131 F   7 N     1.898503378453E-01  2.893453563495E-01 -1.372406818822E-01
    132 F   7 N     1.372406818822E-01 -3.101496621547E-01  2.106546436505E-01
    133 F   7 N    -1.127593181178E-01  3.934535634950E-02  6.014966215470E-02
    134 F   7 N     1.127593181178E-01  4.606546436505E-01  6.014966215470E-02
    135 F   7 N    -3.872406818822E-01  3.934535634950E-02 -6.014966215470E-02
    136 F   7 N    -1.127593181178E-01 -3.934535634950E-02  4.398503378453E-01
    137 F   7 N     3.934535634950E-02  6.014966215470E-02 -1.127593181178E-01
    138 F   7 N     6.014966215470E-02 -1.127593181178E-01  3.934535634950E-02
    139 F   7 N    -3.934535634950E-02  4.398503378453E-01 -1.127593181178E-01
    140 F   7 N     6.014966215470E-02  1.127593181178E-01  4.606546436505E-01
    141 F   7 N     4.606546436505E-01  6.014966215470E-02  1.127593181178E-01
    142 F   7 N    -6.014966215470E-02 -3.872406818822E-01  3.934535634950E-02
    143 F   7 N     3.934535634950E-02 -6.014966215470E-02 -3.872406818822E-01
    144 F   7 N     4.398503378453E-01 -1.127593181178E-01 -3.934535634950E-02
    145 T   6 C    -1.731504707201E-01 -3.212946500104E-01 -2.214791398240E-01
    146 F   6 C     1.731504707201E-01 -1.787053499896E-01 -2.214791398240E-01
    147 F   6 C     3.268495292799E-01 -1.787053499896E-01  2.214791398240E-01
    148 F   6 C     1.731504707201E-01  1.787053499896E-01 -2.785208601760E-01
    149 F   6 C    -2.214791398240E-01 -1.731504707201E-01 -3.212946500104E-01
    150 F   6 C    -3.212946500104E-01 -2.214791398240E-01 -1.731504707201E-01
    151 F   6 C    -2.785208601760E-01  1.731504707201E-01  1.787053499896E-01
    152 F   6 C    -1.787053499896E-01 -2.214791398240E-01  1.731504707201E-01
    153 F   6 C    -2.214791398240E-01  1.731504707201E-01 -1.787053499896E-01
    154 F   6 C    -1.787053499896E-01  2.214791398240E-01  3.268495292799E-01
    155 F   6 C     2.214791398240E-01  3.268495292799E-01 -1.787053499896E-01
    156 F   6 C     1.787053499896E-01 -2.785208601760E-01  1.731504707201E-01
    157 F   6 C    -7.129465001040E-02  7.684952927990E-02  2.852086017600E-02
    158 F   6 C     7.129465001040E-02  4.231504707201E-01  2.852086017600E-02
    159 F   6 C    -4.287053499896E-01  7.684952927990E-02 -2.852086017600E-02
    160 F   6 C    -7.129465001040E-02 -7.684952927990E-02  4.714791398240E-01
    161 F   6 C     7.684952927990E-02  2.852086017600E-02 -7.129465001040E-02
    162 F   6 C     2.852086017600E-02 -7.129465001040E-02  7.684952927990E-02
    163 F   6 C    -7.684952927990E-02  4.714791398240E-01 -7.129465001040E-02
    164 F   6 C     2.852086017600E-02  7.129465001040E-02  4.231504707201E-01
    165 F   6 C     4.231504707201E-01  2.852086017600E-02  7.129465001040E-02
    166 F   6 C    -2.852086017600E-02 -4.287053499896E-01  7.684952927990E-02
    167 F   6 C     7.684952927990E-02 -2.852086017600E-02 -4.287053499896E-01
    168 F   6 C     4.714791398240E-01 -7.129465001040E-02 -7.684952927990E-02
    169 T   6 C    -1.733649599271E-01 -2.597633315700E-01 -2.013877652338E-01
    170 F   6 C     1.733649599271E-01 -2.402366684300E-01 -2.013877652338E-01
    171 F   6 C    -1.733649599271E-01  2.597633315700E-01 -2.986122347662E-01
    172 F   6 C     1.733649599271E-01  2.402366684300E-01 -2.986122347662E-01
    173 F   6 C    -2.013877652338E-01 -1.733649599271E-01 -2.597633315700E-01
    174 F   6 C    -2.597633315700E-01 -2.013877652338E-01 -1.733649599271E-01
    175 F   6 C    -2.986122347662E-01  1.733649599271E-01  2.402366684300E-01
    176 F   6 C    -2.402366684300E-01 -2.013877652338E-01  1.733649599271E-01
    177 F   6 C    -2.013877652338E-01  1.733649599271E-01 -2.402366684300E-01
    178 F   6 C     2.597633315700E-01 -2.986122347662E-01 -1.733649599271E-01
    179 F   6 C    -2.986122347662E-01 -1.733649599271E-01  2.597633315700E-01
    180 F   6 C     2.402366684300E-01 -2.986122347662E-01  1.733649599271E-01
    181 F   6 C    -9.763331570000E-03  7.663504007290E-02  4.861223476620E-02
    182 F   6 C     9.763331570000E-03  4.233649599271E-01  4.861223476620E-02
    183 F   6 C    -4.902366684300E-01  7.663504007290E-02 -4.861223476620E-02
    184 F   6 C    -9.763331570000E-03 -7.663504007290E-02  4.513877652338E-01
    185 F   6 C     7.663504007290E-02  4.861223476620E-02 -9.763331570000E-03
    186 F   6 C     4.861223476620E-02 -9.763331570000E-03  7.663504007290E-02
    187 F   6 C    -7.663504007290E-02  4.513877652338E-01 -9.763331570000E-03
    188 F   6 C     4.861223476620E-02  9.763331570000E-03  4.233649599271E-01
    189 F   6 C     4.233649599271E-01  4.861223476620E-02  9.763331570000E-03
    190 F   6 C    -4.861223476620E-02 -4.902366684300E-01  7.663504007290E-02
    191 F   6 C     7.663504007290E-02 -4.861223476620E-02 -4.902366684300E-01
    192 F   6 C     4.513877652338E-01 -9.763331570000E-03 -7.663504007290E-02
    193 T   7 N     3.495635773459E-01  1.681294513557E-01  2.193206703581E-01
    194 F   7 N     1.504364226541E-01 -1.681294513557E-01 -2.806793296419E-01
    195 F   7 N    -1.504364226541E-01  3.318705486443E-01 -2.193206703581E-01
    196 F   7 N     1.504364226541E-01  1.681294513557E-01 -2.193206703581E-01
    197 F   7 N     2.193206703581E-01  3.495635773459E-01  1.681294513557E-01
    198 F   7 N     1.681294513557E-01  2.193206703581E-01  3.495635773459E-01
    199 F   7 N    -2.193206703581E-01  1.504364226541E-01  1.681294513557E-01
    200 F   7 N    -1.681294513557E-01 -2.806793296419E-01  1.504364226541E-01
    201 F   7 N    -2.806793296419E-01  1.504364226541E-01 -1.681294513557E-01
    202 F   7 N     3.318705486443E-01 -2.193206703581E-01 -1.504364226541E-01
    203 F   7 N    -2.193206703581E-01 -1.504364226541E-01  3.318705486443E-01
    204 F   7 N     1.681294513557E-01 -2.193206703581E-01  1.504364226541E-01
    205 F   7 N    -8.187054864430E-02  9.956357734590E-02 -3.067932964190E-02
    206 F   7 N     8.187054864430E-02  4.004364226541E-01 -3.067932964190E-02
    207 F   7 N    -4.181294513557E-01  9.956357734590E-02  3.067932964190E-02
    208 F   7 N    -8.187054864430E-02 -9.956357734590E-02 -4.693206703581E-01
    209 F   7 N     9.956357734590E-02 -3.067932964190E-02 -8.187054864430E-02
    210 F   7 N    -3.067932964190E-02 -8.187054864430E-02  9.956357734590E-02
    211 F   7 N    -9.956357734590E-02 -4.693206703581E-01 -8.187054864430E-02
    212 F   7 N    -3.067932964190E-02  8.187054864430E-02  4.004364226541E-01
    213 F   7 N     4.004364226541E-01 -3.067932964190E-02  8.187054864430E-02
    214 F   7 N     3.067932964190E-02 -4.181294513557E-01  9.956357734590E-02
    215 F   7 N     9.956357734590E-02  3.067932964190E-02 -4.181294513557E-01
    216 F   7 N    -4.693206703581E-01 -8.187054864430E-02 -9.956357734590E-02
    217 T   7 N    -2.195222280840E-01 -2.492574067149E-01 -1.577338591700E-01
    218 F   7 N     2.195222280840E-01 -2.507425932851E-01 -1.577338591700E-01
    219 F   7 N     2.804777719160E-01 -2.507425932851E-01  1.577338591700E-01
    220 F   7 N    -2.804777719160E-01 -2.492574067149E-01  1.577338591700E-01
    221 F   7 N    -1.577338591700E-01 -2.195222280840E-01 -2.492574067149E-01
    222 F   7 N    -2.492574067149E-01 -1.577338591700E-01 -2.195222280840E-01
    223 F   7 N     1.577338591700E-01 -2.804777719160E-01 -2.492574067149E-01
    224 F   7 N    -2.507425932851E-01 -1.577338591700E-01  2.195222280840E-01
    225 F   7 N    -1.577338591700E-01  2.195222280840E-01 -2.507425932851E-01
    226 F   7 N    -2.507425932851E-01  1.577338591700E-01  2.804777719160E-01
    227 F   7 N     1.577338591700E-01  2.804777719160E-01 -2.507425932851E-01
    228 F   7 N    -2.492574067149E-01  1.577338591700E-01 -2.804777719160E-01
    229 F   7 N     7.425932851001E-04  3.047777191600E-02  9.226614083000E-02
    230 F   7 N    -7.425932850999E-04  4.695222280840E-01  9.226614083000E-02
    231 F   7 N     4.992574067149E-01  3.047777191600E-02 -9.226614083000E-02
    232 F   7 N     7.425932851002E-04 -3.047777191600E-02  4.077338591700E-01
    233 F   7 N     3.047777191600E-02  9.226614083000E-02  7.425932851001E-04
    234 F   7 N     9.226614083000E-02  7.425932851001E-04  3.047777191600E-02
    235 F   7 N    -3.047777191600E-02  4.077338591700E-01  7.425932851001E-04
    236 F   7 N     9.226614083000E-02 -7.425932851001E-04  4.695222280840E-01
    237 F   7 N     4.695222280840E-01  9.226614083000E-02 -7.425932851000E-04
    238 F   7 N    -9.226614083000E-02  4.992574067149E-01  3.047777191600E-02
    239 F   7 N     3.047777191600E-02 -9.226614083000E-02  4.992574067149E-01
    240 F   7 N     4.077338591700E-01  7.425932851002E-04 -3.047777191600E-02
    241 T  25 MN   -1.905985716126E-03  1.309823149924E-01 -6.943981334676E-02
    242 F  25 MN    1.905985716126E-03  3.690176850076E-01 -6.943981334676E-02
    243 F  25 MN   -1.905985716126E-03 -1.309823149924E-01 -4.305601866532E-01
    244 F  25 MN   -4.980940142839E-01  1.309823149924E-01  6.943981334676E-02
    245 F  25 MN   -6.943981334676E-02 -1.905985716126E-03  1.309823149924E-01
    246 F  25 MN    1.309823149924E-01 -6.943981334676E-02 -1.905985716126E-03
    247 F  25 MN    6.943981334676E-02 -4.980940142839E-01  1.309823149924E-01
    248 F  25 MN    3.690176850076E-01 -6.943981334676E-02  1.905985716126E-03
    249 F  25 MN   -6.943981334676E-02  1.905985716126E-03  3.690176850076E-01
    250 F  25 MN   -1.309823149924E-01 -4.305601866532E-01 -1.905985716126E-03
    251 F  25 MN   -4.305601866532E-01 -1.905985716126E-03 -1.309823149924E-01
    252 F  25 MN    1.309823149924E-01  6.943981334676E-02 -4.980940142839E-01
    253 F  25 MN   -1.190176850076E-01 -2.519059857161E-01 -3.194398133468E-01
    254 F  25 MN    1.190176850076E-01 -2.480940142839E-01 -3.194398133468E-01
    255 F  25 MN    1.190176850076E-01  2.480940142839E-01 -1.805601866532E-01
    256 F  25 MN   -1.190176850076E-01  2.519059857161E-01 -1.805601866532E-01
    257 F  25 MN   -2.519059857161E-01 -3.194398133468E-01 -1.190176850076E-01
    258 F  25 MN   -3.194398133468E-01 -1.190176850076E-01 -2.519059857161E-01
    259 F  25 MN    2.519059857161E-01 -1.805601866532E-01 -1.190176850076E-01
    260 F  25 MN   -3.194398133468E-01  1.190176850076E-01 -2.480940142839E-01
    261 F  25 MN   -2.480940142839E-01 -3.194398133468E-01  1.190176850076E-01
    262 F  25 MN   -1.805601866532E-01  1.190176850076E-01  2.480940142839E-01
    263 F  25 MN    2.480940142839E-01 -1.805601866532E-01  1.190176850076E-01
    264 F  25 MN   -1.805601866532E-01 -1.190176850076E-01  2.519059857161E-01
    265 T  17 CL   -5.026217729563E-02  1.661812703098E-01 -1.633393891528E-01
    266 F  17 CL    5.026217729563E-02  3.338187296902E-01 -1.633393891528E-01
    267 F  17 CL   -5.026217729563E-02 -1.661812703098E-01 -3.366606108472E-01
    268 F  17 CL    5.026217729563E-02 -3.338187296902E-01 -3.366606108472E-01
    269 F  17 CL   -1.633393891528E-01 -5.026217729563E-02  1.661812703098E-01
    270 F  17 CL    1.661812703098E-01 -1.633393891528E-01 -5.026217729563E-02
    271 F  17 CL   -3.366606108472E-01  5.026217729563E-02 -3.338187296902E-01
    272 F  17 CL    3.338187296902E-01 -1.633393891528E-01  5.026217729563E-02
    273 F  17 CL   -1.633393891528E-01  5.026217729563E-02  3.338187296902E-01
    274 F  17 CL   -1.661812703098E-01 -3.366606108472E-01 -5.026217729563E-02
    275 F  17 CL   -3.366606108472E-01 -5.026217729563E-02 -1.661812703098E-01
    276 F  17 CL   -3.338187296902E-01 -3.366606108472E-01  5.026217729563E-02
    277 F  17 CL    4.161812703098E-01  1.997378227044E-01  8.666061084720E-02
    278 F  17 CL    8.381872969020E-02 -1.997378227044E-01 -4.133393891528E-01
    279 F  17 CL    8.381872969020E-02  1.997378227044E-01 -8.666061084720E-02
    280 F  17 CL   -8.381872969020E-02  3.002621772956E-01 -8.666061084720E-02
    281 F  17 CL    1.997378227044E-01  8.666061084720E-02  4.161812703098E-01
    282 F  17 CL    8.666061084720E-02  4.161812703098E-01  1.997378227044E-01
    283 F  17 CL    3.002621772956E-01 -8.666061084720E-02 -8.381872969020E-02
    284 F  17 CL   -4.133393891528E-01  8.381872969020E-02 -1.997378227044E-01
    285 F  17 CL   -1.997378227044E-01 -4.133393891528E-01  8.381872969020E-02
    286 F  17 CL   -8.666061084720E-02  8.381872969020E-02  1.997378227044E-01
    287 F  17 CL    1.997378227044E-01 -8.666061084720E-02  8.381872969020E-02
    288 F  17 CL   -8.666061084720E-02 -8.381872969020E-02  3.002621772956E-01
    289 T   6 C     3.750000000000E-01  6.650888434546E-17  2.500000000000E-01
    290 F   6 C     1.250000000000E-01  5.498866557101E-17 -2.500000000000E-01
    291 F   6 C     2.500000000000E-01  3.750000000000E-01  4.346844679657E-17
    292 F   6 C     9.374197430084E-17  2.500000000000E-01  3.750000000000E-01
    293 F   6 C    -2.500000000000E-01  1.250000000000E-01  1.099773311420E-17
    294 F   6 C    -5.760109387224E-18 -2.500000000000E-01  1.250000000000E-01

 T = ATOM BELONGING TO THE ASYMMETRIC UNIT

 ****   24 SYMMOPS - TRANSLATORS IN FRACTIONAL UNITS
 **** MATRICES AND TRANSLATORS IN THE CRYSTALLOGRAPHIC REFERENCE FRAME
   V INV                    ROTATION MATRICES                   TRANSLATORS
   1   1  1.00  0.00  0.00  0.00  1.00  0.00  0.00  0.00  1.00  0.00  0.00  0.00
   2   2  0.00  1.00 -1.00  1.00 -0.00 -1.00  0.00 -0.00 -1.00  0.50 -0.00  0.50
   3   3 -1.00 -0.00  0.00 -1.00  0.00  1.00 -1.00  1.00  0.00  0.50  0.50 -0.00
   4   4 -0.00 -1.00  1.00  0.00 -1.00 -0.00  1.00 -1.00 -0.00  0.00  0.50  0.50
   5   6  0.00 -0.00  1.00  1.00  0.00 -0.00  0.00  1.00 -0.00  0.00  0.00  0.00
   6   5 -0.00  1.00  0.00  0.00 -0.00  1.00  1.00 -0.00  0.00  0.00  0.00  0.00
   7   8  1.00 -1.00  0.00 -0.00 -1.00  1.00 -0.00 -1.00  0.00  0.50 -0.00  0.50
   8   7  1.00 -0.00 -1.00 -0.00  0.00 -1.00 -0.00  1.00 -1.00  0.00  0.50  0.50
   9  10 -0.00  0.00 -1.00  0.00  1.00 -1.00  1.00  0.00 -1.00  0.50  0.50 -0.00
  10   9 -1.00  0.00  1.00 -1.00  1.00 -0.00 -1.00  0.00 -0.00  0.50 -0.00  0.50
  11  12 -1.00  1.00 -0.00 -1.00 -0.00  0.00 -1.00 -0.00  1.00  0.00  0.50  0.50
  12  11  0.00 -1.00 -0.00  1.00 -1.00  0.00  0.00 -1.00  1.00  0.50  0.50 -0.00
[...]
 111 H    1  0.000  0.000  0.000  0.000
 112 H    1  0.000  0.000  0.000  0.000
 113 H    1  0.000  0.000  0.000  0.000
 114 H    1  0.000  0.000  0.000  0.000
 115 H    1  0.000  0.000  0.000  0.000
 116 H    1  0.000  0.000  0.000  0.000
 117 H    1  0.000  0.000  0.000  0.000
 118 H    1  0.000  0.000  0.000  0.000
 119 H    1  0.000  0.000  0.000  0.000
 120 H    1  0.000  0.000  0.000  0.000
 121 N    7  0.000  0.000  0.000  0.000  0.000  0.000  0.000
 122 N    7  0.000  0.000  0.000  0.000  0.000  0.000  0.000
 123 N    7  0.000  0.000  0.000  0.000  0.000  0.000  0.000
 124 N    7  0.000  0.000  0.000  0.000  0.000  0.000  0.000
 125 N    7  0.000  0.000  0.000  0.000  0.000  0.000  0.000
 126 N    7  0.000  0.000  0.000  0.000  0.000  0.000  0.000
 127 N    7  0.000  0.000  0.000  0.000  0.000  0.000  0.000
 128 N    7  0.000  0.000  0.000  0.000  0.000  0.000  0.000
 129 N    7  0.000  0.000  0.000  0.000  0.000  0.000  0.000
 130 N    7  0.000  0.000  0.000  0.000  0.000  0.000  0.000
 131 N    7  0.000  0.000  0.000  0.000  0.000  0.000  0.000
 132 N    7  0.000  0.000  0.000  0.000  0.000  0.000  0.000
 133 N    7  0.000  0.000  0.000  0.000  0.000  0.000  0.000
 134 N    7  0.000  0.000  0.000  0.000  0.000  0.000  0.000
 135 N    7  0.000  0.000  0.000  0.000  0.000  0.000  0.000
 136 N    7  0.000  0.000  0.000  0.000  0.000  0.000  0.000
 137 N    7  0.000  0.000  0.000  0.000  0.000  0.000  0.000
 138 N    7  0.000  0.000  0.000  0.000  0.000  0.000  0.000
 139 N    7  0.000  0.000  0.000  0.000  0.000  0.000  0.000
 140 N    7  0.000  0.000  0.000  0.000  0.000  0.000  0.000
 141 N    7  0.000  0.000  0.000  0.000  0.000  0.000  0.000
 142 N    7  0.000  0.000  0.000  0.000  0.000  0.000  0.000
 143 N    7  0.000  0.000  0.000  0.000  0.000  0.000  0.000
 144 N    7  0.000  0.000  0.000  0.000  0.000  0.000  0.000
 145 C    6  0.000 -0.000  0.000 -0.000  0.000  0.000  0.000
 146 C    6  0.000 -0.000  0.000 -0.000  0.000  0.000  0.000
 147 C    6  0.000 -0.000  0.000 -0.000  0.000  0.000  0.000
 148 C    6  0.000 -0.000  0.000 -0.000  0.000  0.000  0.000
 149 C    6  0.000 -0.000  0.000 -0.000  0.000  0.000  0.000
 150 C    6  0.000 -0.000  0.000 -0.000  0.000  0.000  0.000
 151 C    6  0.000 -0.000  0.000 -0.000  0.000  0.000  0.000
 152 C    6  0.000 -0.000  0.000 -0.000  0.000  0.000  0.000
 153 C    6  0.000 -0.000  0.000 -0.000  0.000  0.000  0.000
 154 C    6  0.000 -0.000  0.000 -0.000  0.000  0.000  0.000
 155 C    6  0.000 -0.000  0.000 -0.000  0.000  0.000  0.000
 156 C    6  0.000 -0.000  0.000 -0.000  0.000  0.000  0.000
 157 C    6  0.000 -0.000  0.000 -0.000  0.000  0.000  0.000
 158 C    6  0.000 -0.000  0.000 -0.000  0.000  0.000  0.000
 159 C    6  0.000 -0.000  0.000 -0.000  0.000  0.000  0.000
 160 C    6  0.000 -0.000  0.000 -0.000  0.000  0.000  0.000
 161 C    6  0.000 -0.000  0.000 -0.000  0.000  0.000  0.000
 162 C    6  0.000 -0.000  0.000 -0.000  0.000  0.000  0.000
 163 C    6  0.000 -0.000  0.000 -0.000  0.000  0.000  0.000
 164 C    6  0.000 -0.000  0.000 -0.000  0.000  0.000  0.000
 165 C    6  0.000 -0.000  0.000 -0.000  0.000  0.000  0.000
 166 C    6  0.000 -0.000  0.000 -0.000  0.000  0.000  0.000
 167 C    6  0.000 -0.000  0.000 -0.000  0.000  0.000  0.000
 168 C    6  0.000 -0.000  0.000 -0.000  0.000  0.000  0.000
 169 C    6  0.000  0.000  0.000  0.000  0.000  0.000  0.000
 170 C    6  0.000  0.000  0.000  0.000  0.000  0.000  0.000
 171 C    6  0.000  0.000  0.000  0.000  0.000  0.000  0.000
 172 C    6  0.000  0.000  0.000  0.000  0.000  0.000  0.000
 173 C    6  0.000  0.000  0.000  0.000  0.000  0.000  0.000
 174 C    6  0.000  0.000  0.000  0.000  0.000  0.000  0.000
 175 C    6  0.000  0.000  0.000  0.000  0.000  0.000  0.000
 176 C    6  0.000  0.000  0.000  0.000  0.000  0.000  0.000
 177 C    6  0.000  0.000  0.000  0.000  0.000  0.000  0.000
 178 C    6  0.000  0.000  0.000  0.000  0.000  0.000  0.000
 179 C    6  0.000  0.000  0.000  0.000  0.000  0.000  0.000
 180 C    6  0.000  0.000  0.000  0.000  0.000  0.000  0.000
 181 C    6  0.000  0.000  0.000  0.000  0.000  0.000  0.000
 182 C    6  0.000  0.000  0.000  0.000  0.000  0.000  0.000
 183 C    6  0.000  0.000  0.000  0.000  0.000  0.000  0.000
 184 C    6  0.000  0.000  0.000  0.000  0.000  0.000  0.000
 185 C    6  0.000  0.000  0.000  0.000  0.000  0.000  0.000
 186 C    6  0.000  0.000  0.000  0.000  0.000  0.000  0.000
 187 C    6  0.000  0.000  0.000  0.000  0.000  0.000  0.000
 188 C    6  0.000  0.000  0.000  0.000  0.000  0.000  0.000
 189 C    6  0.000  0.000  0.000  0.000  0.000  0.000  0.000
 190 C    6  0.000  0.000  0.000  0.000  0.000  0.000  0.000
 191 C    6  0.000  0.000  0.000  0.000  0.000  0.000  0.000
 192 C    6  0.000  0.000  0.000  0.000  0.000  0.000  0.000
 193 N    7  0.000  0.000  0.000  0.000  0.000  0.000  0.000
 194 N    7  0.000  0.000  0.000  0.000  0.000  0.000  0.000
 195 N    7  0.000  0.000  0.000  0.000  0.000  0.000  0.000
 196 N    7  0.000  0.000  0.000  0.000  0.000  0.000  0.000
 197 N    7  0.000  0.000  0.000  0.000  0.000  0.000  0.000
 198 N    7  0.000  0.000  0.000  0.000  0.000  0.000  0.000
 199 N    7  0.000  0.000  0.000  0.000  0.000  0.000  0.000
 200 N    7  0.000  0.000  0.000  0.000  0.000  0.000  0.000
 201 N    7  0.000  0.000  0.000  0.000  0.000  0.000  0.000
 202 N    7  0.000  0.000  0.000  0.000  0.000  0.000  0.000
 203 N    7  0.000  0.000  0.000  0.000  0.000  0.000  0.000
 204 N    7  0.000  0.000  0.000  0.000  0.000  0.000  0.000
 205 N    7  0.000  0.000  0.000  0.000  0.000  0.000  0.000
 206 N    7  0.000  0.000  0.000  0.000  0.000  0.000  0.000
 207 N    7  0.000  0.000  0.000  0.000  0.000  0.000  0.000
 208 N    7  0.000  0.000  0.000  0.000  0.000  0.000  0.000
 209 N    7  0.000  0.000  0.000  0.000  0.000  0.000  0.000
 210 N    7  0.000  0.000  0.000  0.000  0.000  0.000  0.000
 211 N    7  0.000  0.000  0.000  0.000  0.000  0.000  0.000
 212 N    7  0.000  0.000  0.000  0.000  0.000  0.000  0.000
 213 N    7  0.000  0.000  0.000  0.000  0.000  0.000  0.000
 214 N    7  0.000  0.000  0.000  0.000  0.000  0.000  0.000
 215 N    7  0.000  0.000  0.000  0.000  0.000  0.000  0.000
 216 N    7  0.000  0.000  0.000  0.000  0.000  0.000  0.000
 217 N    7  0.000  0.000  0.000  0.000  0.000  0.000  0.000
 218 N    7  0.000  0.000  0.000  0.000  0.000  0.000  0.000
 219 N    7  0.000  0.000  0.000  0.000  0.000  0.000  0.000
 220 N    7  0.000  0.000  0.000  0.000  0.000  0.000  0.000
 221 N    7  0.000  0.000  0.000  0.000  0.000  0.000  0.000
 222 N    7  0.000  0.000  0.000  0.000  0.000  0.000  0.000
 223 N    7  0.000  0.000  0.000  0.000  0.000  0.000  0.000
 224 N    7  0.000  0.000  0.000  0.000  0.000  0.000  0.000
 225 N    7  0.000  0.000  0.000  0.000  0.000  0.000  0.000
 226 N    7  0.000  0.000  0.000  0.000  0.000  0.000  0.000
 227 N    7  0.000  0.000  0.000  0.000  0.000  0.000  0.000
 228 N    7  0.000  0.000  0.000  0.000  0.000  0.000  0.000
 229 N    7  0.000  0.000  0.000  0.000  0.000  0.000  0.000
 230 N    7  0.000  0.000  0.000  0.000  0.000  0.000  0.000
 231 N    7  0.000  0.000  0.000  0.000  0.000  0.000  0.000
 232 N    7  0.000  0.000  0.000  0.000  0.000  0.000  0.000
 233 N    7  0.000  0.000  0.000  0.000  0.000  0.000  0.000
 234 N    7  0.000  0.000  0.000  0.000  0.000  0.000  0.000
 235 N    7  0.000  0.000  0.000  0.000  0.000  0.000  0.000
 236 N    7  0.000  0.000  0.000  0.000  0.000  0.000  0.000
 237 N    7  0.000  0.000  0.000  0.000  0.000  0.000  0.000
 238 N    7  0.000  0.000  0.000  0.000  0.000  0.000  0.000
 239 N    7  0.000  0.000  0.000  0.000  0.000  0.000  0.000
 240 N    7  0.000  0.000  0.000  0.000  0.000  0.000  0.000
 241 MN  25 -0.000  0.000  0.000 -0.000  0.000 -0.000 -0.000 -0.000 -0.000
                   -0.000 -0.000  0.000
 242 MN  25 -0.000  0.000  0.000 -0.000  0.000 -0.000 -0.000 -0.000 -0.000
                   -0.000 -0.000  0.000
 243 MN  25 -0.000  0.000  0.000 -0.000  0.000 -0.000 -0.000 -0.000 -0.000
                   -0.000 -0.000  0.000
 244 MN  25 -0.000  0.000  0.000 -0.000  0.000 -0.000 -0.000 -0.000 -0.000
                   -0.000 -0.000  0.000
 245 MN  25 -0.000  0.000  0.000 -0.000  0.000 -0.000 -0.000 -0.000 -0.000
                   -0.000 -0.000  0.000
 246 MN  25 -0.000  0.000  0.000 -0.000  0.000 -0.000 -0.000 -0.000 -0.000
                   -0.000 -0.000  0.000
 247 MN  25 -0.000  0.000  0.000 -0.000  0.000 -0.000 -0.000 -0.000 -0.000
                   -0.000 -0.000  0.000
 248 MN  25 -0.000  0.000  0.000 -0.000  0.000 -0.000 -0.000 -0.000 -0.000
                   -0.000 -0.000  0.000
 249 MN  25 -0.000  0.000  0.000 -0.000  0.000 -0.000 -0.000 -0.000 -0.000
                   -0.000 -0.000  0.000
 250 MN  25 -0.000  0.000  0.000 -0.000  0.000 -0.000 -0.000 -0.000 -0.000
                   -0.000 -0.000  0.000
 251 MN  25 -0.000  0.000  0.000 -0.000  0.000 -0.000 -0.000 -0.000 -0.000
                   -0.000 -0.000  0.000
 252 MN  25 -0.000  0.000  0.000 -0.000  0.000 -0.000 -0.000 -0.000 -0.000
                   -0.000 -0.000  0.000
 253 MN  25 -0.000  0.000  0.000 -0.000  0.000 -0.000 -0.000 -0.000 -0.000
                   -0.000 -0.000  0.000
 254 MN  25 -0.000  0.000  0.000 -0.000  0.000 -0.000 -0.000 -0.000 -0.000
                   -0.000 -0.000  0.000
 255 MN  25 -0.000  0.000  0.000 -0.000  0.000 -0.000 -0.000 -0.000 -0.000
                   -0.000 -0.000  0.000
 256 MN  25 -0.000  0.000  0.000 -0.000  0.000 -0.000 -0.000 -0.000 -0.000
                   -0.000 -0.000  0.000
 257 MN  25 -0.000  0.000  0.000 -0.000  0.000 -0.000 -0.000 -0.000 -0.000
                   -0.000 -0.000  0.000
 258 MN  25 -0.000  0.000  0.000 -0.000  0.000 -0.000 -0.000 -0.000 -0.000
                   -0.000 -0.000  0.000
 259 MN  25 -0.000  0.000  0.000 -0.000  0.000 -0.000 -0.000 -0.000 -0.000
                   -0.000 -0.000  0.000
 260 MN  25 -0.000  0.000  0.000 -0.000  0.000 -0.000 -0.000 -0.000 -0.000
                   -0.000 -0.000  0.000
 261 MN  25 -0.000  0.000  0.000 -0.000  0.000 -0.000 -0.000 -0.000 -0.000
                   -0.000 -0.000  0.000
 262 MN  25 -0.000  0.000  0.000 -0.000  0.000 -0.000 -0.000 -0.000 -0.000
                   -0.000 -0.000  0.000
 263 MN  25 -0.000  0.000  0.000 -0.000  0.000 -0.000 -0.000 -0.000 -0.000
                   -0.000 -0.000  0.000
 264 MN  25 -0.000  0.000  0.000 -0.000  0.000 -0.000 -0.000 -0.000 -0.000
                   -0.000 -0.000  0.000
 265 CL  17 -0.000 -0.000  0.000  0.000 -0.000 -0.000 -0.000  0.000 -0.000
 266 CL  17 -0.000 -0.000  0.000  0.000 -0.000 -0.000 -0.000  0.000 -0.000
 267 CL  17 -0.000 -0.000  0.000  0.000 -0.000 -0.000 -0.000  0.000 -0.000
 268 CL  17 -0.000 -0.000  0.000  0.000 -0.000 -0.000 -0.000  0.000 -0.000
 269 CL  17 -0.000 -0.000  0.000  0.000 -0.000 -0.000 -0.000  0.000 -0.000
 270 CL  17 -0.000 -0.000  0.000  0.000 -0.000 -0.000 -0.000  0.000 -0.000
 271 CL  17 -0.000 -0.000  0.000  0.000 -0.000 -0.000 -0.000  0.000 -0.000
 272 CL  17 -0.000 -0.000  0.000  0.000 -0.000 -0.000 -0.000  0.000 -0.000
 273 CL  17 -0.000 -0.000  0.000  0.000 -0.000 -0.000 -0.000  0.000 -0.000
 274 CL  17 -0.000 -0.000  0.000  0.000 -0.000 -0.000 -0.000  0.000 -0.000
 275 CL  17 -0.000 -0.000  0.000  0.000 -0.000 -0.000 -0.000  0.000 -0.000
 276 CL  17 -0.000 -0.000  0.000  0.000 -0.000 -0.000 -0.000  0.000 -0.000
 277 CL  17 -0.000 -0.000  0.000  0.000 -0.000 -0.000 -0.000  0.000 -0.000
 278 CL  17 -0.000 -0.000  0.000  0.000 -0.000 -0.000 -0.000  0.000 -0.000
 279 CL  17 -0.000 -0.000  0.000  0.000 -0.000 -0.000 -0.000  0.000 -0.000
 280 CL  17 -0.000 -0.000  0.000  0.000 -0.000 -0.000 -0.000  0.000 -0.000
 281 CL  17 -0.000 -0.000  0.000  0.000 -0.000 -0.000 -0.000  0.000 -0.000
 282 CL  17 -0.000 -0.000  0.000  0.000 -0.000 -0.000 -0.000  0.000 -0.000
 283 CL  17 -0.000 -0.000  0.000  0.000 -0.000 -0.000 -0.000  0.000 -0.000
 284 CL  17 -0.000 -0.000  0.000  0.000 -0.000 -0.000 -0.000  0.000 -0.000
 285 CL  17 -0.000 -0.000  0.000  0.000 -0.000 -0.000 -0.000  0.000 -0.000
 286 CL  17 -0.000 -0.000  0.000  0.000 -0.000 -0.000 -0.000  0.000 -0.000
 287 CL  17 -0.000 -0.000  0.000  0.000 -0.000 -0.000 -0.000  0.000 -0.000
 288 CL  17 -0.000 -0.000  0.000  0.000 -0.000 -0.000 -0.000  0.000 -0.000
 289 C    6 -0.000 -0.000 -0.000  0.000 -0.000 -0.000  0.000
 290 C    6 -0.000 -0.000 -0.000  0.000 -0.000 -0.000  0.000
 291 C    6 -0.000 -0.000 -0.000  0.000 -0.000 -0.000  0.000
 292 C    6 -0.000 -0.000 -0.000  0.000 -0.000 -0.000  0.000
 293 C    6 -0.000 -0.000 -0.000  0.000 -0.000 -0.000  0.000
 294 C    6 -0.000 -0.000 -0.000  0.000 -0.000 -0.000  0.000

 OVERLAP POPULATION CONDENSED TO ATOMS FOR FIRST   6 NEIGHBORS

 ATOM A   1 C    ATOM B     CELL      R(AB)/AU R(AB)/ANG    OVPOP(AB)
                 25 H    (  0  0  0)     2.049     1.084    -0.000
                193 N    (  0  0  0)     2.513     1.330    -0.000
                 49 C    (  0  0  0)     2.659     1.407    -0.000
                145 C    (  1  1  1)     4.309     2.280    -0.000
                 73 C    (  0  0  0)     4.492     2.377    -0.000
                289 C    (  0  0  0)     4.850     2.567     0.000

 ATOM A  25 H    ATOM B     CELL      R(AB)/AU R(AB)/ANG    OVPOP(AB)
                  1 C    (  0  0  0)     2.049     1.084    -0.000
                193 N    (  0  0  0)     3.847     2.036     0.000
                 49 C    (  0  0  0)     4.162     2.203    -0.000
                 93 C    (  0  0  0)     4.222     2.234     0.000
                141 N    (  0  0  0)     4.421     2.339     0.000
                 69 C    (  0  0  0)     4.870     2.577    -0.000

 ATOM A  49 C    ATOM B     CELL      R(AB)/AU R(AB)/ANG    OVPOP(AB)
                 73 C    (  0  0  0)     2.652     1.404    -0.000
                  1 C    (  0  0  0)     2.659     1.407    -0.000
                289 C    (  0  0  0)     2.888     1.528    -0.000
                 97 H    (  0  0  0)     4.132     2.187    -0.000
                 25 H    (  0  0  0)     4.162     2.203    -0.000
                193 N    (  0  0  0)     4.516     2.390    -0.000

 ATOM A  73 C    ATOM B     CELL      R(AB)/AU R(AB)/ANG    OVPOP(AB)
                 97 H    (  0  0  0)     2.064     1.092     0.000
                121 N    (  0  0  0)     2.528     1.338     0.000
                 49 C    (  0  0  0)     2.652     1.404    -0.000
                 43 H    (  1  1  1)     4.222     2.234     0.000
                145 C    (  1  1  1)     4.318     2.285    -0.000
                  1 C    (  0  0  0)     4.492     2.377    -0.000

 ATOM A  97 H    ATOM B     CELL      R(AB)/AU R(AB)/ANG    OVPOP(AB)
                 73 C    (  0  0  0)     2.064     1.092     0.000
                121 N    (  0  0  0)     3.916     2.072    -0.000
                 49 C    (  0  0  0)     4.132     2.187    -0.000
                 43 H    (  1  1  1)     5.089     2.693    -0.000
                281 CL   (  0  0  0)     5.114     2.706     0.000
                 19 C    (  1  1  1)     5.301     2.805    -0.000

 ATOM A 121 N    ATOM B     CELL      R(AB)/AU R(AB)/ANG    OVPOP(AB)
                 73 C    (  0  0  0)     2.528     1.338     0.000
                145 C    (  1  1  1)     2.594     1.373    -0.000
                257 MN   (  1  1  1)     3.744     1.981     0.000
                 97 H    (  0  0  0)     3.916     2.072    -0.000
                 43 H    (  1  1  1)     4.421     2.339     0.000
                169 C    (  1  1  1)     4.448     2.354    -0.000

 ATOM A 145 C    ATOM B     CELL      R(AB)/AU R(AB)/ANG    OVPOP(AB)
                121 N    ( -1 -1 -1)     2.594     1.373    -0.000
                193 N    ( -1 -1 -1)     2.596     1.374    -0.000
                169 C    (  0  0  0)     2.614     1.383     0.000
                221 N    (  0  0  0)     4.305     2.278    -0.000
                  1 C    ( -1 -1 -1)     4.309     2.280    -0.000
                217 N    (  0  0  0)     4.312     2.282    -0.000

 ATOM A 169 C    ATOM B     CELL      R(AB)/AU R(AB)/ANG    OVPOP(AB)
                217 N    (  0  0  0)     2.600     1.376    -0.000
                221 N    (  0  0  0)     2.603     1.377    -0.000
                145 C    (  0  0  0)     2.614     1.383     0.000
                173 C    (  0  0  0)     4.360     2.307    -0.000
                193 N    ( -1 -1 -1)     4.426     2.342    -0.000
                121 N    ( -1 -1 -1)     4.448     2.354    -0.000

 ATOM A 193 N    ATOM B     CELL      R(AB)/AU R(AB)/ANG    OVPOP(AB)
                  1 C    (  0  0  0)     2.513     1.330    -0.000
                145 C    (  1  1  1)     2.596     1.374    -0.000
                253 MN   (  1  1  1)     3.806     2.014     0.000
                 25 H    (  0  0  0)     3.847     2.036     0.000
                169 C    (  1  1  1)     4.426     2.342    -0.000
                 49 C    (  0  0  0)     4.516     2.390    -0.000

 ATOM A 217 N    ATOM B     CELL      R(AB)/AU R(AB)/ANG    OVPOP(AB)
                169 C    (  0  0  0)     2.600     1.376    -0.000
                174 C    (  0  0  0)     2.603     1.377    -0.000
                257 MN   (  0  0  0)     3.491     1.847    -0.000
                150 C    (  0  0  0)     4.305     2.278    -0.000
                145 C    (  0  0  0)     4.312     2.282    -0.000
                221 N    (  0  0  0)     4.618     2.444    -0.000

 ATOM A 241 MN   ATOM B     CELL      R(AB)/AU R(AB)/ANG    OVPOP(AB)
                233 N    (  0  0  0)     3.491     1.847    -0.000
                137 N    (  0  0  0)     3.744     1.981     0.000
                205 N    (  0  0  0)     3.806     2.014     0.000
                279 CL   (  0  0  0)     4.492     2.377     0.000
                265 CL   (  0  0  0)     4.496     2.379     0.000
                185 C    (  0  0  0)     5.189     2.746     0.000

 ATOM A 265 CL   ATOM B     CELL      R(AB)/AU R(AB)/ANG    OVPOP(AB)
                256 MN   (  0  0  0)     4.492     2.377     0.000
                241 MN   (  0  0  0)     4.496     2.379     0.000
                113 H    (  0  0  0)     5.114     2.706     0.000
                 37 H    (  0  0  0)     5.245     2.775    -0.000
                137 N    (  0  0  0)     5.966     3.157     0.000
                225 N    (  0  0  0)     5.994     3.172    -0.000

 ATOM A 289 C    ATOM B     CELL      R(AB)/AU R(AB)/ANG    OVPOP(AB)
                 49 C    (  0  0  0)     2.888     1.528    -0.000
                 73 C    (  0  0  0)     4.789     2.534    -0.000
                  1 C    (  0  0  0)     4.850     2.567     0.000
                 97 H    (  0  0  0)     5.370     2.842    -0.000
                 25 H    (  0  0  0)     5.588     2.957    -0.000
                121 N    (  0  0  0)     6.969     3.688     0.000
 EIGENVECTORS IN FORTRAN UNIT 10
 TTTTTTTTTTTTTTTTTTTTTTTTTTTTTT END         TELAPSE     2094.91 TCPU     2087.34
 MMMMM END         USED MEM(MB)     61.93 MAX MEM    373.15 TOT MEM      1486.22
 EEEEEEEEEE TERMINATION  DATE 28 04 2025 TIME 17:13:00.2
NODE    0 CPU TIME =      2087.343
NODE    1 CPU TIME =      2088.611
NODE    2 CPU TIME =      2088.319
NODE    3 CPU TIME =      2088.146
NODE    4 CPU TIME =      2087.796
NODE    5 CPU TIME =      2087.975
NODE    6 CPU TIME =      2087.944
NODE    7 CPU TIME =      2088.243
NODE    8 CPU TIME =      2087.561
NODE    9 CPU TIME =      2085.282
NODE   10 CPU TIME =      2087.205
NODE   11 CPU TIME =      2088.599
NODE   12 CPU TIME =      2087.986
NODE   13 CPU TIME =      2087.426
NODE   14 CPU TIME =      2088.147
NODE   15 CPU TIME =      2088.173
NODE   16 CPU TIME =      2088.523
NODE   17 CPU TIME =      2088.127
NODE   18 CPU TIME =      2084.648
NODE   19 CPU TIME =      2086.685
NODE   20 CPU TIME =      2087.576
NODE   21 CPU TIME =      2088.007
NODE   22 CPU TIME =      2086.956
NODE   23 CPU TIME =      2087.545
    TOTAL CPU TIME =     50102.824
