 PROCESS           20  OF           24  WORKING
 PROCESS           10  OF           24  WORKING
 PROCESS           17  OF           24  WORKING
 PROCESS            2  OF           24  WORKING
 PROCESS            3  OF           24  WORKING
 PROCESS           16  OF           24  WORKING
 PROCESS            8  OF           24  WORKING
 PROCESS           12  OF           24  WORKING
 PROCESS           22  OF           24  WORKING
 PROCESS           15  OF           24  WORKING
 PROCESS            1  OF           24  WORKING
 PROCESS            4  OF           24  WORKING
 PROCESS            6  OF           24  WORKING
 PROCESS            9  OF           24  WORKING
 PROCESS           11  OF           24  WORKING
 PROCESS           13  OF           24  WORKING
 PROCESS           19  OF           24  WORKING
 PROCESS           14  OF           24  WORKING
 PROCESS           21  OF           24  WORKING
 PROCESS            0  OF           24  WORKING
 PROCESS            7  OF           24  WORKING
 PROCESS            5  OF           24  WORKING
 PROCESS           18  OF           24  WORKING
 PROCESS           23  OF           24  WORKING

         
 *******************************************************************************
 *                                                                             *
 *                               CRYSTAL23                                     *
 *                      public : 1.0.1 - October 2022                          *
 *                       HTTP://WWW.CRYSTAL.UNITO.IT                           *
 *                                                                             *
 *                              MAIN AUTHORS                                   *
 *                                                                             *
 *  R. DOVESI(1,11), V.R. SAUNDERS(2), C. ROETTI(1,11), R. ORLANDO(1,11),      *
 *  C.M. ZICOVICH-WILSON(1,3), F. PASCALE(4), B. CIVALLERI(1,11),              *
 *  K. DOLL(5), N.M. HARRISON(6), I.J. BUSH(7), Ph. D'ARCO(8),                 *
 *  M. LLUNELL(9), M. CAUSA'(10), Y. NOEL(8), L. MASCHIO(1,11), A. ERBA(1,11)  *
 *  M. RE'RAT(14), S. CASASSA(1,11), B.G. SEARLE(2), J.K. DESMARAIS(1)         *
 *                                                                             *
 *        CONTRIBUTIONS TO THE CODE HAVE ALSO BEEN GIVEN BY                    *
 *                                                                             *
 *  M. FERRABONE(1,11), M. DE LA PIERRE(1,11), M. FERRERO(1,11),               *
 *  J. BAIMA(1,11), E. ALBANESE(1,11), M.F. PEINTINGER(12), R. BAST(13),       *
 *  B. KIRTMAN(15), V. LACIVITA(1,11), R. DEMICHELIS(1,16)                     *
 *  G. BRANDEBURG(17), S. SALUSTRO(1,11), G. SANSONE(1,11)                     *
 *  M.T. RUGGIERO(18), L.E. DAGA(1), L. DONA'(1), A. COSSARD(1)                *
 *                                                                             *
 * (1) THEORETICAL CHEMISTRY GROUP - UNIVERSITA' DI TORINO - TORINO (ITALY)    *
 * (2) SCIENTIFIC COMPUTING DEPARTMENT - STFC DARESBURY (UK)                   *
 * (3) UNIVERSIDAD AUTONOMA DEL ESTADO DE MORELOS - CUERNAVACA (MEXICO)        *
 * (4) UNIVERSITE' DE LORRAINE - NANCY (FRANCE)                                *
 * (5) UNIVERSITAET STUTTGART- STUTTGART (GERMANY)                             *
 * (6) IMPERIAL COLLEGE - LONDON (UK)                                          *
 * (7) SCIENTIFIC COMPUTING DEPARTMENT - STFC RAL (UK)                         *
 * (8) UPMC - SORBONNE UNIVERSITES - PARIS (FRANCE)                            *
 * (9) UNIVERSIDAD DE BARCELONA - BARCELONA (SPAIN)                            *
 *(10) UNIVERSITA' DI NAPOLI "FEDERICO II" - NAPOLI (ITALY)                    *
 *(11) NIS - NANOSTRUCTURED INTERFACES AND SURFACES - TORINO (ITALY)           *
 *(12) MPI FUER CHEMISCHE ENERGIEKONVERSION - MUELHEIM AN DER RUHR (GERMANY)   *
 *(13) UNIVERSITY OF TROMSO - TROMSO (NORWAY)                                  *
 *(14) UNIVERSITE' DE PAU ET DES PAYS DE L'ADOUR - PAU (FRANCE)                *
 *(15) UNIVERSITY OF CALIFORNIA SANTA BARBARA - SANTA BARBARA (USA)            *
 *(16) CURTIN UNIVERSITY - PERTH (AUSTRALIA)                                   *
 *(17) UNIVERSITY COLLEGE LONDON - LONDON (UK)                                 *
 *(18) UNIVERSITY OF VERMONT - BURLINGTON (USA)                                *
 *                                                                             *
 *******************************************************************************
 EEEEEEEEEE STARTING  DATE 28 04 2025 TIME 16:38:03.1
 NiExtPandaCOF102_sym                                                            

 CRYSTAL CALCULATION
 (INPUT ACCORDING TO THE INTERNATIONAL TABLES FOR X-RAY CRYSTALLOGRAPHY)
 CRYSTAL FAMILY                       :  CUBIC       
 CRYSTAL CLASS  (GROTH - 1921)        :  CUBIC HEXAKISTETRAHEDRAL             

 SPACE GROUP (NONCENTROSYMMETRIC)     :  I -4 3 D        

 LATTICE PARAMETERS  (ANGSTROMS AND DEGREES) - CONVENTIONAL CELL
        A           B           C        ALPHA        BETA       GAMMA
    50.85268    50.85268    50.85268    90.00000    90.00000    90.00000


 NUMBER OF IRREDUCIBLE ATOMS IN THE CONVENTIONAL CELL:   29

 INPUT COORDINATES

 ATOM AT. N.              COORDINATES
   1  28     1.392093785486E-01  2.421563689546E-01  1.745497451656E-01
   2  17     1.292458299166E-01  2.584590128853E-01  1.370860804685E-01
   3   6     2.277672438275E-01  2.637942739696E-01  1.081673703898E-01
   4   1     2.692317196213E-01  3.020869419370E-01  5.220827537923E-02
   5   6     2.338227042337E-01  2.399378549307E-01  1.187349223339E-01
   6   6     2.051445662776E-01  2.783532418010E-01  1.155768463824E-01
   7   6     2.160274219256E-01  3.418002485172E-01  5.896581376706E-02
   8   6     2.332139430839E-01  3.210094580989E-01  6.428916450536E-02
   9   6     2.607310652149E-01  3.358551644103E-01  2.834652891736E-02
  10  17     9.840949736671E-02  2.426723002184E-01  1.846722450005E-01
  11   6     2.558043153467E-01  3.183957668430E-01  4.865624400318E-02
  12   1     2.071910596274E-01  3.752648275085E-01  3.463061225726E-02
  13   5     2.266970364029E-01  3.005781851170E-01  8.517167649707E-02
  14   7     1.760719654142E-01  2.353231171413E-01  1.638460215350E-01
  15   8     2.047239971472E-01  3.012154775029E-01  1.016520887830E-01
  16   6     2.435383367305E-01  3.568371113993E-01  2.318073998293E-02
  17   6     2.210907583084E-01  3.595161812469E-01  3.871448487403E-02
  18   6     1.927241976053E-01  2.447979462927E-01  1.451626070606E-01
  19   1     2.776761760984E-01  3.329902170966E-01  1.553426863315E-02
  20   6     2.159345676633E-01  2.297020507626E-01  1.373684609171E-01
  21   6     1.877259118943E-01  2.697591035388E-01  1.340205276183E-01
  22   8     2.412979566016E-01  2.777600455410E-01  8.978028857800E-02
  23   1     1.981868967867E-01  3.439018399370E-01  7.063979083731E-02
  24   7     2.210190811391E-01  2.059419150186E-01  1.485808373826E-01
  25   6     1.834554025684E-01  2.133242034427E-01  1.761575774932E-01
  26   6     2.055797485202E-01  1.988136175438E-01  1.685997162023E-01
  27   1     2.508324308680E-01  2.282886028577E-01  1.131331874759E-01
  28   1     1.701735583956E-01  2.804371555361E-01  1.398931367328E-01
  29   6     1.250000000000E-01 -5.451550746850E-17 -2.500000000000E-01

 *******************************************************************************

 << INFORMATION >>: FROM NOW ON, ALL COORDINATES REFER TO THE PRIMITIVE CELL

 *******************************************************************************

 LATTICE PARAMETERS  (ANGSTROMS AND DEGREES) - PRIMITIVE CELL
       A          B          C        ALPHA      BETA     GAMMA        VOLUME
   44.03971   44.03971   44.03971   109.47122 109.47122 109.47122  65752.397279

 COORDINATES OF THE EQUIVALENT ATOMS (FRACTIONAL UNITS)

 N. ATOM EQUIV AT. N.          X                  Y                  Z

   1   1   1   28 NI    4.16706114120E-01  3.13759123714E-01  3.81365747503E-01
   2   1   2   28 NI    4.32393376211E-01  3.53403666170E-02  1.18634252497E-01
   3   1   3   28 NI    8.32938858798E-02  4.64659633383E-01 -1.02946990406E-01
   4   1   4   28 NI    6.76066237890E-02  1.86240876286E-01 -3.97053009594E-01
   5   1   5   28 NI    3.81365747503E-01  4.16706114120E-01  3.13759123714E-01
   6   1   6   28 NI    3.13759123714E-01  3.81365747503E-01  4.16706114120E-01
   7   1   7   28 NI   -3.97053009594E-01  6.76066237890E-02  1.86240876286E-01
   8   1   8   28 NI    3.53403666170E-02  1.18634252497E-01  4.32393376211E-01
   9   1   9   28 NI    1.18634252497E-01  4.32393376211E-01  3.53403666170E-02
  10   1  10   28 NI    4.64659633383E-01 -1.02946990406E-01  8.32938858798E-02
  11   1  11   28 NI   -1.02946990406E-01  8.32938858798E-02  4.64659633383E-01
  12   1  12   28 NI    1.86240876286E-01 -3.97053009594E-01  6.76066237890E-02
  13   1  13   28 NI   -1.86240876286E-01 -8.32938858798E-02 -1.18634252497E-01
  14   1  14   28 NI   -4.64659633383E-01 -6.76066237890E-02 -3.81365747503E-01
  15   1  15   28 NI   -3.53403666170E-02 -4.16706114120E-01  3.97053009594E-01
  16   1  16   28 NI   -3.13759123714E-01 -4.32393376211E-01  1.02946990406E-01
  17   1  17   28 NI   -8.32938858798E-02 -1.18634252497E-01 -1.86240876286E-01
  18   1  18   28 NI   -1.18634252497E-01 -1.86240876286E-01 -8.32938858798E-02
  19   1  19   28 NI   -4.32393376211E-01  1.02946990406E-01 -3.13759123714E-01
  20   1  20   28 NI   -3.81365747503E-01 -4.64659633383E-01 -6.76066237890E-02
  21   1  21   28 NI   -6.76066237890E-02 -3.81365747503E-01 -4.64659633383E-01
  22   1  22   28 NI    3.97053009594E-01 -3.53403666170E-02 -4.16706114120E-01
  23   1  23   28 NI   -4.16706114120E-01  3.97053009594E-01 -3.53403666170E-02
  24   1  24   28 NI    1.02946990406E-01 -3.13759123714E-01 -4.32393376211E-01

  25   2   1   17 CL    3.95545093354E-01  2.66331910385E-01  3.87704842802E-01
  26   2   2   17 CL    3.78627067583E-01  7.84025055190E-03  1.12295157198E-01
  27   2   3   17 CL    1.04454906646E-01  4.92159749448E-01 -1.29213182969E-01
  28   2   4   17 CL    1.21372932417E-01  2.33668089615E-01 -3.70786817031E-01
  29   2   5   17 CL    3.87704842802E-01  3.95545093354E-01  2.66331910385E-01
  30   2   6   17 CL    2.66331910385E-01  3.87704842802E-01  3.95545093354E-01
  31   2   7   17 CL   -3.70786817031E-01  1.21372932417E-01  2.33668089615E-01
  32   2   8   17 CL    7.84025055190E-03  1.12295157198E-01  3.78627067583E-01
  33   2   9   17 CL    1.12295157198E-01  3.78627067583E-01  7.84025055190E-03
  34   2  10   17 CL    4.92159749448E-01 -1.29213182969E-01  1.04454906646E-01
  35   2  11   17 CL   -1.29213182969E-01  1.04454906646E-01  4.92159749448E-01
  36   2  12   17 CL    2.33668089615E-01 -3.70786817031E-01  1.21372932417E-01
  37   2  13   17 CL   -2.33668089615E-01 -1.04454906646E-01 -1.12295157198E-01
  38   2  14   17 CL   -4.92159749448E-01 -1.21372932417E-01 -3.87704842802E-01
  39   2  15   17 CL   -7.84025055190E-03 -3.95545093354E-01  3.70786817031E-01
  40   2  16   17 CL   -2.66331910385E-01 -3.78627067583E-01  1.29213182969E-01
  41   2  17   17 CL   -1.04454906646E-01 -1.12295157198E-01 -2.33668089615E-01
  42   2  18   17 CL   -1.12295157198E-01 -2.33668089615E-01 -1.04454906646E-01
  43   2  19   17 CL   -3.78627067583E-01  1.29213182969E-01 -2.66331910385E-01
  44   2  20   17 CL   -3.87704842802E-01 -4.92159749448E-01 -1.21372932417E-01
  45   2  21   17 CL   -1.21372932417E-01 -3.87704842802E-01 -4.92159749448E-01
  46   2  22   17 CL    3.70786817031E-01 -7.84025055190E-03 -3.95545093354E-01
  47   2  23   17 CL   -3.95545093354E-01  3.70786817031E-01 -7.84025055190E-03
  48   2  24   17 CL    1.29213182969E-01 -2.66331910385E-01 -3.78627067583E-01

  49   3   1    6 C     3.71961644359E-01  3.35934614217E-01  4.91561517797E-01
  50   3   2    6 C     3.44373096420E-01 -1.19599873438E-01  8.43848220290E-03
  51   3   3    6 C     1.28038355641E-01 -3.80400126562E-01 -3.60270301421E-02
  52   3   4    6 C     1.55626903580E-01  1.64065385783E-01 -4.63972969858E-01
  53   3   5    6 C     4.91561517797E-01  3.71961644359E-01  3.35934614217E-01
  54   3   6    6 C     3.35934614217E-01  4.91561517797E-01  3.71961644359E-01
  55   3   7    6 C    -4.63972969858E-01  1.55626903580E-01  1.64065385783E-01
  56   3   8    6 C    -1.19599873438E-01  8.43848220290E-03  3.44373096420E-01
  57   3   9    6 C     8.43848220290E-03  3.44373096420E-01 -1.19599873438E-01
  58   3  10    6 C    -3.80400126562E-01 -3.60270301421E-02  1.28038355641E-01
  59   3  11    6 C    -3.60270301421E-02  1.28038355641E-01 -3.80400126562E-01
  60   3  12    6 C     1.64065385783E-01 -4.63972969858E-01  1.55626903580E-01
  61   3  13    6 C    -1.64065385783E-01 -1.28038355641E-01 -8.43848220290E-03
  62   3  14    6 C     3.80400126562E-01 -1.55626903580E-01 -4.91561517797E-01
  63   3  15    6 C     1.19599873438E-01 -3.71961644359E-01  4.63972969858E-01
  64   3  16    6 C    -3.35934614217E-01 -3.44373096420E-01  3.60270301421E-02
  65   3  17    6 C    -1.28038355641E-01 -8.43848220290E-03 -1.64065385783E-01
  66   3  18    6 C    -8.43848220290E-03 -1.64065385783E-01 -1.28038355641E-01
  67   3  19    6 C    -3.44373096420E-01  3.60270301421E-02 -3.35934614217E-01
  68   3  20    6 C    -4.91561517797E-01  3.80400126562E-01 -1.55626903580E-01
  69   3  21    6 C    -1.55626903580E-01 -4.91561517797E-01  3.80400126562E-01
  70   3  22    6 C     4.63972969858E-01  1.19599873438E-01 -3.71961644359E-01
  71   3  23    6 C    -3.71961644359E-01  4.63972969858E-01  1.19599873438E-01
  72   3  24    6 C     3.60270301421E-02 -3.35934614217E-01 -3.44373096420E-01

  73   4   1    1 H     3.54295217316E-01  3.21439995001E-01 -4.28681338442E-01
  74   4   2    1 H     2.50121333442E-01 -2.17023444242E-01 -7.13186615583E-02
  75   4   3    1 H     1.45704782684E-01 -2.82976555758E-01 -3.28552223157E-02
  76   4   4    1 H     2.49878666558E-01  1.78560004999E-01 -4.67144777684E-01
  77   4   5    1 H    -4.28681338442E-01  3.54295217316E-01  3.21439995001E-01
  78   4   6    1 H     3.21439995001E-01 -4.28681338442E-01  3.54295217316E-01
  79   4   7    1 H    -4.67144777684E-01  2.49878666558E-01  1.78560004999E-01
  80   4   8    1 H    -2.17023444242E-01 -7.13186615583E-02  2.50121333442E-01
  81   4   9    1 H    -7.13186615583E-02  2.50121333442E-01 -2.17023444242E-01
  82   4  10    1 H    -2.82976555758E-01 -3.28552223157E-02  1.45704782684E-01
  83   4  11    1 H    -3.28552223157E-02  1.45704782684E-01 -2.82976555758E-01
  84   4  12    1 H     1.78560004999E-01 -4.67144777684E-01  2.49878666558E-01
  85   4  13    1 H    -1.78560004999E-01 -1.45704782684E-01  7.13186615583E-02
  86   4  14    1 H     2.82976555758E-01 -2.49878666558E-01  4.28681338442E-01
  87   4  15    1 H     2.17023444242E-01 -3.54295217316E-01  4.67144777684E-01
  88   4  16    1 H    -3.21439995001E-01 -2.50121333442E-01  3.28552223157E-02
  89   4  17    1 H    -1.45704782684E-01  7.13186615583E-02 -1.78560004999E-01
  90   4  18    1 H     7.13186615583E-02 -1.78560004999E-01 -1.45704782684E-01
  91   4  19    1 H    -2.50121333442E-01  3.28552223157E-02 -3.21439995001E-01
  92   4  20    1 H     4.28681338442E-01  2.82976555758E-01 -2.49878666558E-01
  93   4  21    1 H    -2.49878666558E-01  4.28681338442E-01  2.82976555758E-01
  94   4  22    1 H     4.67144777684E-01  2.17023444242E-01 -3.54295217316E-01
  95   4  23    1 H    -3.54295217316E-01  4.67144777684E-01  2.17023444242E-01
  96   4  24    1 H     3.28552223157E-02 -3.21439995001E-01 -2.50121333442E-01

  97   5   1    6 C     3.58672777265E-01  3.52557626568E-01  4.73760559164E-01
  98   5   2    6 C     3.78797067403E-01 -1.15087781900E-01  2.62394408356E-02
  99   5   3    6 C     1.41327222735E-01 -3.84912218100E-01 -6.11515069700E-03
 100   5   4    6 C     1.21202932597E-01  1.47442373432E-01 -4.93884849303E-01
 101   5   5    6 C     4.73760559164E-01  3.58672777265E-01  3.52557626568E-01
 102   5   6    6 C     3.52557626568E-01  4.73760559164E-01  3.58672777265E-01
 103   5   7    6 C    -4.93884849303E-01  1.21202932597E-01  1.47442373432E-01
 104   5   8    6 C    -1.15087781900E-01  2.62394408356E-02  3.78797067403E-01
 105   5   9    6 C     2.62394408356E-02  3.78797067403E-01 -1.15087781900E-01
 106   5  10    6 C    -3.84912218100E-01 -6.11515069700E-03  1.41327222735E-01
 107   5  11    6 C    -6.11515069700E-03  1.41327222735E-01 -3.84912218100E-01
 108   5  12    6 C     1.47442373432E-01 -4.93884849303E-01  1.21202932597E-01
 109   5  13    6 C    -1.47442373432E-01 -1.41327222735E-01 -2.62394408356E-02
 110   5  14    6 C     3.84912218100E-01 -1.21202932597E-01 -4.73760559164E-01
 111   5  15    6 C     1.15087781900E-01 -3.58672777265E-01  4.93884849303E-01
 112   5  16    6 C    -3.52557626568E-01 -3.78797067403E-01  6.11515069700E-03
 113   5  17    6 C    -1.41327222735E-01 -2.62394408356E-02 -1.47442373432E-01
 114   5  18    6 C    -2.62394408356E-02 -1.47442373432E-01 -1.41327222735E-01
 115   5  19    6 C    -3.78797067403E-01  6.11515069700E-03 -3.52557626568E-01
 116   5  20    6 C    -4.73760559164E-01  3.84912218100E-01 -1.21202932597E-01
 117   5  21    6 C    -1.21202932597E-01 -4.73760559164E-01  3.84912218100E-01
 118   5  22    6 C     4.93884849303E-01  1.15087781900E-01 -3.58672777265E-01
 119   5  23    6 C    -3.58672777265E-01  4.93884849303E-01  1.15087781900E-01
 120   5  24    6 C     6.11515069700E-03 -3.52557626568E-01 -3.78797067403E-01

 121   6   1    6 C     3.93930088183E-01  3.20721412660E-01  4.83497808079E-01
 122   6   2    6 C     3.37223604581E-01 -8.95677198952E-02  1.65021919214E-02
 123   6   3    6 C     1.06069911817E-01 -4.10432280105E-01 -7.32086755234E-02
 124   6   4    6 C     1.62776395419E-01  1.79278587340E-01 -4.26791324477E-01
 125   6   5    6 C     4.83497808079E-01  3.93930088183E-01  3.20721412660E-01
 126   6   6    6 C     3.20721412660E-01  4.83497808079E-01  3.93930088183E-01
 127   6   7    6 C    -4.26791324477E-01  1.62776395419E-01  1.79278587340E-01
 128   6   8    6 C    -8.95677198952E-02  1.65021919214E-02  3.37223604581E-01
 129   6   9    6 C     1.65021919214E-02  3.37223604581E-01 -8.95677198952E-02
 130   6  10    6 C    -4.10432280105E-01 -7.32086755234E-02  1.06069911817E-01
 131   6  11    6 C    -7.32086755234E-02  1.06069911817E-01 -4.10432280105E-01
 132   6  12    6 C     1.79278587340E-01 -4.26791324477E-01  1.62776395419E-01
 133   6  13    6 C    -1.79278587340E-01 -1.06069911817E-01 -1.65021919214E-02
 134   6  14    6 C     4.10432280105E-01 -1.62776395419E-01 -4.83497808079E-01
 135   6  15    6 C     8.95677198952E-02 -3.93930088183E-01  4.26791324477E-01
 136   6  16    6 C    -3.20721412660E-01 -3.37223604581E-01  7.32086755234E-02
 137   6  17    6 C    -1.06069911817E-01 -1.65021919214E-02 -1.79278587340E-01
 138   6  18    6 C    -1.65021919214E-02 -1.79278587340E-01 -1.06069911817E-01
 139   6  19    6 C    -3.37223604581E-01  7.32086755234E-02 -3.20721412660E-01
 140   6  20    6 C    -4.83497808079E-01  4.10432280105E-01 -1.62776395419E-01
 141   6  21    6 C    -1.62776395419E-01 -4.83497808079E-01  4.10432280105E-01
 142   6  22    6 C     4.26791324477E-01  8.95677198952E-02 -3.93930088183E-01
 143   6  23    6 C    -3.93930088183E-01  4.26791324477E-01  8.95677198952E-02
 144   6  24    6 C     7.32086755234E-02 -3.20721412660E-01 -3.37223604581E-01

 145   7   1    6 C     4.00766062284E-01  2.74993235693E-01 -4.42172329557E-01
 146   7   2    6 C     2.17165565250E-01 -1.57061608159E-01 -5.78276704428E-02
 147   7   3    6 C     9.92339377157E-02 -3.42938391841E-01 -1.25772826592E-01
 148   7   4    6 C     2.82834434750E-01  2.25006764307E-01 -3.74227173408E-01
 149   7   5    6 C    -4.42172329557E-01  4.00766062284E-01  2.74993235693E-01
 150   7   6    6 C     2.74993235693E-01 -4.42172329557E-01  4.00766062284E-01
 151   7   7    6 C    -3.74227173408E-01  2.82834434750E-01  2.25006764307E-01
 152   7   8    6 C    -1.57061608159E-01 -5.78276704428E-02  2.17165565250E-01
 153   7   9    6 C    -5.78276704428E-02  2.17165565250E-01 -1.57061608159E-01
 154   7  10    6 C    -3.42938391841E-01 -1.25772826592E-01  9.92339377157E-02
 155   7  11    6 C    -1.25772826592E-01  9.92339377157E-02 -3.42938391841E-01
 156   7  12    6 C     2.25006764307E-01 -3.74227173408E-01  2.82834434750E-01
 157   7  13    6 C    -2.25006764307E-01 -9.92339377157E-02  5.78276704428E-02
 158   7  14    6 C     3.42938391841E-01 -2.82834434750E-01  4.42172329557E-01
 159   7  15    6 C     1.57061608159E-01 -4.00766062284E-01  3.74227173408E-01
 160   7  16    6 C    -2.74993235693E-01 -2.17165565250E-01  1.25772826592E-01
 161   7  17    6 C    -9.92339377157E-02  5.78276704428E-02 -2.25006764307E-01
 162   7  18    6 C     5.78276704428E-02 -2.25006764307E-01 -9.92339377157E-02
 163   7  19    6 C    -2.17165565250E-01  1.25772826592E-01 -2.74993235693E-01
 164   7  20    6 C     4.42172329557E-01  3.42938391841E-01 -2.82834434750E-01
 165   7  21    6 C    -2.82834434750E-01  4.42172329557E-01  3.42938391841E-01
 166   7  22    6 C     3.74227173408E-01  1.57061608159E-01 -4.00766062284E-01
 167   7  23    6 C    -4.00766062284E-01  3.74227173408E-01  1.57061608159E-01
 168   7  24    6 C     1.25772826592E-01 -2.74993235693E-01 -2.17165565250E-01

 169   8   1    6 C     3.85298622604E-01  2.97503107589E-01 -4.45776598817E-01
 170   8   2    6 C     2.43279706406E-01 -1.68924778579E-01 -5.42234011828E-02
 171   8   3    6 C     1.14701377396E-01 -3.31075221421E-01 -8.77955150150E-02
 172   8   4    6 C     2.56720293594E-01  2.02496892411E-01 -4.12204484985E-01
 173   8   5    6 C    -4.45776598817E-01  3.85298622604E-01  2.97503107589E-01
 174   8   6    6 C     2.97503107589E-01 -4.45776598817E-01  3.85298622604E-01
 175   8   7    6 C    -4.12204484985E-01  2.56720293594E-01  2.02496892411E-01
 176   8   8    6 C    -1.68924778579E-01 -5.42234011828E-02  2.43279706406E-01
 177   8   9    6 C    -5.42234011828E-02  2.43279706406E-01 -1.68924778579E-01
 178   8  10    6 C    -3.31075221421E-01 -8.77955150150E-02  1.14701377396E-01
 179   8  11    6 C    -8.77955150150E-02  1.14701377396E-01 -3.31075221421E-01
 180   8  12    6 C     2.02496892411E-01 -4.12204484985E-01  2.56720293594E-01
 181   8  13    6 C    -2.02496892411E-01 -1.14701377396E-01  5.42234011828E-02
 182   8  14    6 C     3.31075221421E-01 -2.56720293594E-01  4.45776598817E-01
 183   8  15    6 C     1.68924778579E-01 -3.85298622604E-01  4.12204484985E-01
 184   8  16    6 C    -2.97503107589E-01 -2.43279706406E-01  8.77955150150E-02
 185   8  17    6 C    -1.14701377396E-01  5.42234011828E-02 -2.02496892411E-01
 186   8  18    6 C     5.42234011828E-02 -2.02496892411E-01 -1.14701377396E-01
 187   8  19    6 C    -2.43279706406E-01  8.77955150150E-02 -2.97503107589E-01
 188   8  20    6 C     4.45776598817E-01  3.31075221421E-01 -2.56720293594E-01
 189   8  21    6 C    -2.56720293594E-01  4.45776598817E-01  3.31075221421E-01
 190   8  22    6 C     4.12204484985E-01  1.68924778579E-01 -3.85298622604E-01
 191   8  23    6 C    -3.85298622604E-01  4.12204484985E-01  1.68924778579E-01
 192   8  24    6 C     8.77955150150E-02 -2.97503107589E-01 -2.43279706406E-01

 193   9   1    6 C     3.64201693328E-01  2.89077594132E-01 -4.03413770375E-01
 194   9   2    6 C     1.92491364507E-01 -2.32384536298E-01 -9.65862296252E-02
 195   9   3    6 C     1.35798306672E-01 -2.67615463702E-01 -7.51240991954E-02
 196   9   4    6 C     3.07508635493E-01  2.10922405868E-01 -4.24875900805E-01
 197   9   5    6 C    -4.03413770375E-01  3.64201693328E-01  2.89077594132E-01
 198   9   6    6 C     2.89077594132E-01 -4.03413770375E-01  3.64201693328E-01
 199   9   7    6 C    -4.24875900805E-01  3.07508635493E-01  2.10922405868E-01
 200   9   8    6 C    -2.32384536298E-01 -9.65862296252E-02  1.92491364507E-01
 201   9   9    6 C    -9.65862296252E-02  1.92491364507E-01 -2.32384536298E-01
 202   9  10    6 C    -2.67615463702E-01 -7.51240991954E-02  1.35798306672E-01
 203   9  11    6 C    -7.51240991954E-02  1.35798306672E-01 -2.67615463702E-01
 204   9  12    6 C     2.10922405868E-01 -4.24875900805E-01  3.07508635493E-01
 205   9  13    6 C    -2.10922405868E-01 -1.35798306672E-01  9.65862296252E-02
 206   9  14    6 C     2.67615463702E-01 -3.07508635493E-01  4.03413770375E-01
 207   9  15    6 C     2.32384536298E-01 -3.64201693328E-01  4.24875900805E-01
 208   9  16    6 C    -2.89077594132E-01 -1.92491364507E-01  7.51240991954E-02
 209   9  17    6 C    -1.35798306672E-01  9.65862296252E-02 -2.10922405868E-01
 210   9  18    6 C     9.65862296252E-02 -2.10922405868E-01 -1.35798306672E-01
 211   9  19    6 C    -1.92491364507E-01  7.51240991954E-02 -2.89077594132E-01
 212   9  20    6 C     4.03413770375E-01  2.67615463702E-01 -3.07508635493E-01
 213   9  21    6 C    -3.07508635493E-01  4.03413770375E-01  2.67615463702E-01
 214   9  22    6 C     4.24875900805E-01  2.32384536298E-01 -3.64201693328E-01
 215   9  23    6 C    -3.64201693328E-01  4.24875900805E-01  2.32384536298E-01
 216   9  24    6 C     7.51240991954E-02 -2.89077594132E-01 -1.92491364507E-01

 217  10   1   17 CL    4.27344545219E-01  2.83081742367E-01  3.41081797585E-01
 218  10   2   17 CL    4.41999944782E-01  8.62627476338E-02  1.58918202415E-01
 219  10   3   17 CL    7.26554547811E-02  4.13737252366E-01 -1.44262802852E-01
 220  10   4   17 CL    5.80000552179E-02  2.16918257633E-01 -3.55737197148E-01
 221  10   5   17 CL    3.41081797585E-01  4.27344545219E-01  2.83081742367E-01
 222  10   6   17 CL    2.83081742367E-01  3.41081797585E-01  4.27344545219E-01
 223  10   7   17 CL   -3.55737197148E-01  5.80000552179E-02  2.16918257633E-01
 224  10   8   17 CL    8.62627476338E-02  1.58918202415E-01  4.41999944782E-01
 225  10   9   17 CL    1.58918202415E-01  4.41999944782E-01  8.62627476338E-02
 226  10  10   17 CL    4.13737252366E-01 -1.44262802852E-01  7.26554547811E-02
 227  10  11   17 CL   -1.44262802852E-01  7.26554547811E-02  4.13737252366E-01
 228  10  12   17 CL    2.16918257633E-01 -3.55737197148E-01  5.80000552179E-02
 229  10  13   17 CL   -2.16918257633E-01 -7.26554547811E-02 -1.58918202415E-01
 230  10  14   17 CL   -4.13737252366E-01 -5.80000552179E-02 -3.41081797585E-01
 231  10  15   17 CL   -8.62627476338E-02 -4.27344545219E-01  3.55737197148E-01
 232  10  16   17 CL   -2.83081742367E-01 -4.41999944782E-01  1.44262802852E-01
 233  10  17   17 CL   -7.26554547811E-02 -1.58918202415E-01 -2.16918257633E-01
 234  10  18   17 CL   -1.58918202415E-01 -2.16918257633E-01 -7.26554547811E-02
 235  10  19   17 CL   -4.41999944782E-01  1.44262802852E-01 -2.83081742367E-01
 236  10  20   17 CL   -3.41081797585E-01 -4.13737252366E-01 -5.80000552179E-02
 237  10  21   17 CL   -5.80000552179E-02 -3.41081797585E-01 -4.13737252366E-01
 238  10  22   17 CL    3.55737197148E-01 -8.62627476338E-02 -4.27344545219E-01
 239  10  23   17 CL   -4.27344545219E-01  3.55737197148E-01 -8.62627476338E-02
 240  10  24   17 CL    1.44262802852E-01 -2.83081742367E-01 -4.41999944782E-01

 241  11   1    6 C     3.67052010846E-01  3.04460559350E-01 -4.25799917810E-01
 242  11   2    6 C     2.30260477160E-01 -2.07148071344E-01 -7.42000821897E-02
 243  11   3    6 C     1.32947989154E-01 -2.92851928656E-01 -6.25914514963E-02
 244  11   4    6 C     2.69739522840E-01  1.95539440650E-01 -4.37408548504E-01
 245  11   5    6 C    -4.25799917810E-01  3.67052010846E-01  3.04460559350E-01
 246  11   6    6 C     3.04460559350E-01 -4.25799917810E-01  3.67052010846E-01
 247  11   7    6 C    -4.37408548504E-01  2.69739522840E-01  1.95539440650E-01
 248  11   8    6 C    -2.07148071344E-01 -7.42000821897E-02  2.30260477160E-01
 249  11   9    6 C    -7.42000821897E-02  2.30260477160E-01 -2.07148071344E-01
 250  11  10    6 C    -2.92851928656E-01 -6.25914514963E-02  1.32947989154E-01
 251  11  11    6 C    -6.25914514963E-02  1.32947989154E-01 -2.92851928656E-01
 252  11  12    6 C     1.95539440650E-01 -4.37408548504E-01  2.69739522840E-01
 253  11  13    6 C    -1.95539440650E-01 -1.32947989154E-01  7.42000821897E-02
 254  11  14    6 C     2.92851928656E-01 -2.69739522840E-01  4.25799917810E-01
 255  11  15    6 C     2.07148071344E-01 -3.67052010846E-01  4.37408548504E-01
 256  11  16    6 C    -3.04460559350E-01 -2.30260477160E-01  6.25914514963E-02
 257  11  17    6 C    -1.32947989154E-01  7.42000821897E-02 -1.95539440650E-01
 258  11  18    6 C     7.42000821897E-02 -1.95539440650E-01 -1.32947989154E-01
 259  11  19    6 C    -2.30260477160E-01  6.25914514963E-02 -3.04460559350E-01
 260  11  20    6 C     4.25799917810E-01  2.92851928656E-01 -2.69739522840E-01
 261  11  21    6 C    -2.69739522840E-01  4.25799917810E-01  2.92851928656E-01
 262  11  22    6 C     4.37408548504E-01  2.07148071344E-01 -3.67052010846E-01
 263  11  23    6 C    -3.67052010846E-01  4.37408548504E-01  2.07148071344E-01
 264  11  24    6 C     6.25914514963E-02 -3.04460559350E-01 -2.30260477160E-01

 265  12   1    1 H     4.09895439766E-01  2.41821671885E-01 -4.17544112864E-01
 266  12   2    1 H     1.59365784749E-01 -1.72560447370E-01 -8.24558871359E-02
 267  12   3    1 H     9.01045602342E-02 -3.27439552630E-01 -1.68073767881E-01
 268  12   4    1 H     3.40634215251E-01  2.58178328115E-01 -3.31926232119E-01
 269  12   5    1 H    -4.17544112864E-01  4.09895439766E-01  2.41821671885E-01
 270  12   6    1 H     2.41821671885E-01 -4.17544112864E-01  4.09895439766E-01
 271  12   7    1 H    -3.31926232119E-01  3.40634215251E-01  2.58178328115E-01
 272  12   8    1 H    -1.72560447370E-01 -8.24558871359E-02  1.59365784749E-01
 273  12   9    1 H    -8.24558871359E-02  1.59365784749E-01 -1.72560447370E-01
 274  12  10    1 H    -3.27439552630E-01 -1.68073767881E-01  9.01045602342E-02
 275  12  11    1 H    -1.68073767881E-01  9.01045602342E-02 -3.27439552630E-01
 276  12  12    1 H     2.58178328115E-01 -3.31926232119E-01  3.40634215251E-01
 277  12  13    1 H    -2.58178328115E-01 -9.01045602342E-02  8.24558871359E-02
 278  12  14    1 H     3.27439552630E-01 -3.40634215251E-01  4.17544112864E-01
 279  12  15    1 H     1.72560447370E-01 -4.09895439766E-01  3.31926232119E-01
 280  12  16    1 H    -2.41821671885E-01 -1.59365784749E-01  1.68073767881E-01
 281  12  17    1 H    -9.01045602342E-02  8.24558871359E-02 -2.58178328115E-01
 282  12  18    1 H     8.24558871359E-02 -2.58178328115E-01 -9.01045602342E-02
 283  12  19    1 H    -1.59365784749E-01  1.68073767881E-01 -2.41821671885E-01
 284  12  20    1 H     4.17544112864E-01  3.27439552630E-01 -3.40634215251E-01
 285  12  21    1 H    -3.40634215251E-01  4.17544112864E-01  3.27439552630E-01
 286  12  22    1 H     3.31926232119E-01  1.72560447370E-01 -4.09895439766E-01
 287  12  23    1 H    -4.09895439766E-01  3.31926232119E-01  1.72560447370E-01
 288  12  24    1 H     1.68073767881E-01 -2.41821671885E-01 -1.59365784749E-01

 289  13   1    5 B     3.85749861614E-01  3.11868712900E-01 -4.72724778480E-01
 290  13   2    5 B     2.84593491380E-01 -1.41525359906E-01 -2.72752215199E-02
 291  13   3    5 B     1.14250138386E-01 -3.58474640094E-01 -7.38811487141E-02
 292  13   4    5 B     2.15406508620E-01  1.88131287100E-01 -4.26118851286E-01
 293  13   5    5 B    -4.72724778480E-01  3.85749861614E-01  3.11868712900E-01
 294  13   6    5 B     3.11868712900E-01 -4.72724778480E-01  3.85749861614E-01
 295  13   7    5 B    -4.26118851286E-01  2.15406508620E-01  1.88131287100E-01
 296  13   8    5 B    -1.41525359906E-01 -2.72752215199E-02  2.84593491380E-01
 297  13   9    5 B    -2.72752215199E-02  2.84593491380E-01 -1.41525359906E-01
 298  13  10    5 B    -3.58474640094E-01 -7.38811487141E-02  1.14250138386E-01
 299  13  11    5 B    -7.38811487141E-02  1.14250138386E-01 -3.58474640094E-01
 300  13  12    5 B     1.88131287100E-01 -4.26118851286E-01  2.15406508620E-01
 301  13  13    5 B    -1.88131287100E-01 -1.14250138386E-01  2.72752215199E-02
 302  13  14    5 B     3.58474640094E-01 -2.15406508620E-01  4.72724778480E-01
 303  13  15    5 B     1.41525359906E-01 -3.85749861614E-01  4.26118851286E-01
 304  13  16    5 B    -3.11868712900E-01 -2.84593491380E-01  7.38811487141E-02
 305  13  17    5 B    -1.14250138386E-01  2.72752215199E-02 -1.88131287100E-01
 306  13  18    5 B     2.72752215199E-02 -1.88131287100E-01 -1.14250138386E-01
 307  13  19    5 B    -2.84593491380E-01  7.38811487141E-02 -3.11868712900E-01
 308  13  20    5 B     4.72724778480E-01  3.58474640094E-01 -2.15406508620E-01
 309  13  21    5 B    -2.15406508620E-01  4.72724778480E-01  3.58474640094E-01
 310  13  22    5 B     4.26118851286E-01  1.41525359906E-01 -3.85749861614E-01
 311  13  23    5 B    -3.85749861614E-01  4.26118851286E-01  1.41525359906E-01
 312  13  24    5 B     7.38811487141E-02 -3.11868712900E-01 -2.84593491380E-01

 313  14   1    7 N     3.99169138676E-01  3.39917986949E-01  4.11395082556E-01
 314  14   2    7 N     4.28522904394E-01 -1.22259438792E-02  8.86049174445E-02
 315  14   3    7 N     1.00830861324E-01 -4.87774056121E-01 -5.92511517271E-02
 316  14   4    7 N     7.14770956063E-02  1.60082013051E-01 -4.40748848273E-01
 317  14   5    7 N     4.11395082556E-01  3.99169138676E-01  3.39917986949E-01
 318  14   6    7 N     3.39917986949E-01  4.11395082556E-01  3.99169138676E-01
 319  14   7    7 N    -4.40748848273E-01  7.14770956063E-02  1.60082013051E-01
 320  14   8    7 N    -1.22259438792E-02  8.86049174445E-02  4.28522904394E-01
 321  14   9    7 N     8.86049174445E-02  4.28522904394E-01 -1.22259438792E-02
 322  14  10    7 N    -4.87774056121E-01 -5.92511517271E-02  1.00830861324E-01
 323  14  11    7 N    -5.92511517271E-02  1.00830861324E-01 -4.87774056121E-01
 324  14  12    7 N     1.60082013051E-01 -4.40748848273E-01  7.14770956063E-02
 325  14  13    7 N    -1.60082013051E-01 -1.00830861324E-01 -8.86049174445E-02
 326  14  14    7 N     4.87774056121E-01 -7.14770956063E-02 -4.11395082555E-01
 327  14  15    7 N     1.22259438792E-02 -3.99169138676E-01  4.40748848273E-01
 328  14  16    7 N    -3.39917986949E-01 -4.28522904394E-01  5.92511517271E-02
 329  14  17    7 N    -1.00830861324E-01 -8.86049174445E-02 -1.60082013051E-01
 330  14  18    7 N    -8.86049174445E-02 -1.60082013051E-01 -1.00830861324E-01
 331  14  19    7 N    -4.28522904394E-01  5.92511517271E-02 -3.39917986949E-01
 332  14  20    7 N    -4.11395082555E-01  4.87774056121E-01 -7.14770956063E-02
 333  14  21    7 N    -7.14770956063E-02 -4.11395082555E-01  4.87774056121E-01
 334  14  22    7 N     4.40748848273E-01  1.22259438792E-02 -3.99169138676E-01
 335  14  23    7 N    -3.99169138676E-01  4.40748848273E-01  1.22259438792E-02
 336  14  24    7 N     5.92511517271E-02 -3.39917986949E-01 -4.28522904394E-01

 337  15   1    8 O     4.02867566286E-01  3.06376085930E-01 -4.94060525350E-01
 338  15   2    8 O     3.00436611280E-01 -1.03071908364E-01 -5.93947465010E-03
 339  15   3    8 O     9.71324337141E-02 -3.96928091636E-01 -9.64914803557E-02
 340  15   4    8 O     1.99563388720E-01  1.93623914070E-01 -4.03508519644E-01
 341  15   5    8 O    -4.94060525350E-01  4.02867566286E-01  3.06376085930E-01
 342  15   6    8 O     3.06376085930E-01 -4.94060525350E-01  4.02867566286E-01
 343  15   7    8 O    -4.03508519644E-01  1.99563388720E-01  1.93623914070E-01
 344  15   8    8 O    -1.03071908364E-01 -5.93947465010E-03  3.00436611280E-01
 345  15   9    8 O    -5.93947465010E-03  3.00436611280E-01 -1.03071908364E-01
 346  15  10    8 O    -3.96928091636E-01 -9.64914803557E-02  9.71324337141E-02
 347  15  11    8 O    -9.64914803557E-02  9.71324337141E-02 -3.96928091636E-01
 348  15  12    8 O     1.93623914070E-01 -4.03508519644E-01  1.99563388720E-01
 349  15  13    8 O    -1.93623914070E-01 -9.71324337141E-02  5.93947465010E-03
 350  15  14    8 O     3.96928091636E-01 -1.99563388720E-01  4.94060525350E-01
 351  15  15    8 O     1.03071908364E-01 -4.02867566286E-01  4.03508519644E-01
 352  15  16    8 O    -3.06376085930E-01 -3.00436611280E-01  9.64914803557E-02
 353  15  17    8 O    -9.71324337141E-02  5.93947465010E-03 -1.93623914070E-01
 354  15  18    8 O     5.93947465010E-03 -1.93623914070E-01 -9.71324337141E-02
 355  15  19    8 O    -3.00436611280E-01  9.64914803557E-02 -3.06376085930E-01
 356  15  20    8 O     4.94060525350E-01  3.96928091636E-01 -1.99563388720E-01
 357  15  21    8 O    -1.99563388720E-01  4.94060525350E-01  3.96928091636E-01
 358  15  22    8 O     4.03508519644E-01  1.03071908364E-01 -4.02867566286E-01
 359  15  23    8 O    -4.02867566286E-01  4.03508519644E-01  1.03071908364E-01
 360  15  24    8 O     9.64914803557E-02 -3.06376085930E-01 -3.00436611280E-01

 361  16   1    6 C     3.80017851382E-01  2.66719076713E-01 -3.99624551870E-01
 362  16   2    6 C     1.66343628584E-01 -2.20357596748E-01 -1.00375448130E-01
 363  16   3    6 C     1.19982148618E-01 -2.79642403252E-01 -1.13298774669E-01
 364  16   4    6 C     3.33656371416E-01  2.33280923287E-01 -3.86701225331E-01
 365  16   5    6 C    -3.99624551870E-01  3.80017851382E-01  2.66719076713E-01
 366  16   6    6 C     2.66719076713E-01 -3.99624551870E-01  3.80017851382E-01
 367  16   7    6 C    -3.86701225331E-01  3.33656371416E-01  2.33280923287E-01
 368  16   8    6 C    -2.20357596748E-01 -1.00375448130E-01  1.66343628584E-01
 369  16   9    6 C    -1.00375448130E-01  1.66343628584E-01 -2.20357596748E-01
 370  16  10    6 C    -2.79642403252E-01 -1.13298774669E-01  1.19982148618E-01
 371  16  11    6 C    -1.13298774669E-01  1.19982148618E-01 -2.79642403252E-01
 372  16  12    6 C     2.33280923287E-01 -3.86701225331E-01  3.33656371416E-01
 373  16  13    6 C    -2.33280923287E-01 -1.19982148618E-01  1.00375448130E-01
 374  16  14    6 C     2.79642403252E-01 -3.33656371416E-01  3.99624551870E-01
 375  16  15    6 C     2.20357596748E-01 -3.80017851382E-01  3.86701225331E-01
 376  16  16    6 C    -2.66719076713E-01 -1.66343628584E-01  1.13298774669E-01
 377  16  17    6 C    -1.19982148618E-01  1.00375448130E-01 -2.33280923287E-01
 378  16  18    6 C     1.00375448130E-01 -2.33280923287E-01 -1.19982148618E-01
 379  16  19    6 C    -1.66343628584E-01  1.13298774669E-01 -2.66719076713E-01
 380  16  20    6 C     3.99624551870E-01  2.79642403252E-01 -3.33656371416E-01
 381  16  21    6 C    -3.33656371416E-01  3.99624551870E-01  2.79642403252E-01
 382  16  22    6 C     3.86701225331E-01  2.20357596748E-01 -3.80017851382E-01
 383  16  23    6 C    -3.80017851382E-01  3.86701225331E-01  2.20357596748E-01
 384  16  24    6 C     1.13298774669E-01 -2.66719076713E-01 -1.66343628584E-01

 385  17   1    6 C     3.98230666121E-01  2.59805243182E-01 -4.19393060445E-01
 386  17   2    6 C     1.79198303627E-01 -1.82376273434E-01 -8.06069395553E-02
 387  17   3    6 C     1.01769333879E-01 -3.17623726566E-01 -1.38425422938E-01
 388  17   4    6 C     3.20801696373E-01  2.40194756818E-01 -3.61574577061E-01
 389  17   5    6 C    -4.19393060445E-01  3.98230666121E-01  2.59805243182E-01
 390  17   6    6 C     2.59805243182E-01 -4.19393060445E-01  3.98230666121E-01
 391  17   7    6 C    -3.61574577061E-01  3.20801696373E-01  2.40194756818E-01
 392  17   8    6 C    -1.82376273434E-01 -8.06069395553E-02  1.79198303627E-01
 393  17   9    6 C    -8.06069395553E-02  1.79198303627E-01 -1.82376273434E-01
 394  17  10    6 C    -3.17623726566E-01 -1.38425422938E-01  1.01769333879E-01
 395  17  11    6 C    -1.38425422938E-01  1.01769333879E-01 -3.17623726566E-01
 396  17  12    6 C     2.40194756818E-01 -3.61574577061E-01  3.20801696373E-01
 397  17  13    6 C    -2.40194756818E-01 -1.01769333879E-01  8.06069395553E-02
 398  17  14    6 C     3.17623726566E-01 -3.20801696373E-01  4.19393060445E-01
 399  17  15    6 C     1.82376273434E-01 -3.98230666121E-01  3.61574577061E-01
 400  17  16    6 C    -2.59805243182E-01 -1.79198303627E-01  1.38425422939E-01
 401  17  17    6 C    -1.01769333879E-01  8.06069395553E-02 -2.40194756818E-01
 402  17  18    6 C     8.06069395553E-02 -2.40194756818E-01 -1.01769333879E-01
 403  17  19    6 C    -1.79198303627E-01  1.38425422939E-01 -2.59805243182E-01
 404  17  20    6 C     4.19393060445E-01  3.17623726566E-01 -3.20801696373E-01
 405  17  21    6 C    -3.20801696373E-01  4.19393060445E-01  3.17623726566E-01
 406  17  22    6 C     3.61574577061E-01  1.82376273434E-01 -3.98230666121E-01
 407  17  23    6 C    -3.98230666121E-01  3.61574577061E-01  1.82376273434E-01
 408  17  24    6 C     1.38425422939E-01 -2.59805243182E-01 -1.79198303627E-01

 409  18   1    6 C     3.89960553353E-01  3.37886804666E-01  4.37522143898E-01
 410  18   2    6 C     4.00364660768E-01 -4.75615905447E-02  6.24778561020E-02
 411  18   3    6 C     1.10039446647E-01 -4.52438409455E-01 -5.20737486874E-02
 412  18   4    6 C     9.96353392321E-02  1.62113195334E-01 -4.47926251313E-01
 413  18   5    6 C     4.37522143898E-01  3.89960553353E-01  3.37886804666E-01
 414  18   6    6 C     3.37886804666E-01  4.37522143898E-01  3.89960553353E-01
 415  18   7    6 C    -4.47926251313E-01  9.96353392321E-02  1.62113195334E-01
 416  18   8    6 C    -4.75615905447E-02  6.24778561020E-02  4.00364660768E-01
 417  18   9    6 C     6.24778561020E-02  4.00364660768E-01 -4.75615905447E-02
 418  18  10    6 C    -4.52438409455E-01 -5.20737486874E-02  1.10039446647E-01
 419  18  11    6 C    -5.20737486874E-02  1.10039446647E-01 -4.52438409455E-01
 420  18  12    6 C     1.62113195334E-01 -4.47926251313E-01  9.96353392321E-02
 421  18  13    6 C    -1.62113195334E-01 -1.10039446647E-01 -6.24778561020E-02
 422  18  14    6 C     4.52438409455E-01 -9.96353392321E-02 -4.37522143898E-01
 423  18  15    6 C     4.75615905447E-02 -3.89960553353E-01  4.47926251313E-01
 424  18  16    6 C    -3.37886804666E-01 -4.00364660768E-01  5.20737486874E-02
 425  18  17    6 C    -1.10039446647E-01 -6.24778561020E-02 -1.62113195334E-01
 426  18  18    6 C    -6.24778561020E-02 -1.62113195334E-01 -1.10039446647E-01
 427  18  19    6 C    -4.00364660768E-01  5.20737486874E-02 -3.37886804666E-01
 428  18  20    6 C    -4.37522143898E-01  4.52438409455E-01 -9.96353392321E-02
 429  18  21    6 C    -9.96353392321E-02 -4.37522143898E-01  4.52438409455E-01
 430  18  22    6 C     4.47926251313E-01  4.75615905447E-02 -3.89960553353E-01
 431  18  23    6 C    -3.89960553353E-01  4.47926251313E-01  4.75615905447E-02
 432  18  24    6 C     5.20737486874E-02 -3.37886804666E-01 -4.00364660768E-01

 433  19   1    1 H     3.48524485730E-01  2.93210444732E-01 -3.89333606805E-01
 434  19   2    1 H     1.82544051537E-01 -2.62141907465E-01 -1.10666393195E-01
 435  19   3    1 H     1.51475514270E-01 -2.37858092535E-01 -5.53140409982E-02
 436  19   4    1 H     3.17455948463E-01  2.06789555268E-01 -4.44685959002E-01
 437  19   5    1 H    -3.89333606805E-01  3.48524485730E-01  2.93210444732E-01
 438  19   6    1 H     2.93210444732E-01 -3.89333606805E-01  3.48524485730E-01
 439  19   7    1 H    -4.44685959002E-01  3.17455948463E-01  2.06789555268E-01
 440  19   8    1 H    -2.62141907465E-01 -1.10666393195E-01  1.82544051537E-01
 441  19   9    1 H    -1.10666393195E-01  1.82544051537E-01 -2.62141907465E-01
 442  19  10    1 H    -2.37858092535E-01 -5.53140409982E-02  1.51475514270E-01
 443  19  11    1 H    -5.53140409982E-02  1.51475514270E-01 -2.37858092535E-01
 444  19  12    1 H     2.06789555268E-01 -4.44685959002E-01  3.17455948463E-01
 445  19  13    1 H    -2.06789555268E-01 -1.51475514270E-01  1.10666393195E-01
 446  19  14    1 H     2.37858092535E-01 -3.17455948463E-01  3.89333606805E-01
 447  19  15    1 H     2.62141907465E-01 -3.48524485730E-01  4.44685959002E-01
 448  19  16    1 H    -2.93210444732E-01 -1.82544051537E-01  5.53140409982E-02
 449  19  17    1 H    -1.51475514270E-01  1.10666393195E-01 -2.06789555268E-01
 450  19  18    1 H     1.10666393195E-01 -2.06789555268E-01 -1.51475514270E-01
 451  19  19    1 H    -1.82544051537E-01  5.53140409982E-02 -2.93210444732E-01
 452  19  20    1 H     3.89333606805E-01  2.37858092535E-01 -3.17455948463E-01
 453  19  21    1 H    -3.17455948463E-01  3.89333606805E-01  2.37858092535E-01
 454  19  22    1 H     4.44685959002E-01  2.62141907465E-01 -3.48524485730E-01
 455  19  23    1 H    -3.48524485730E-01  4.44685959002E-01  2.62141907465E-01
 456  19  24    1 H     5.53140409982E-02 -2.93210444732E-01 -1.82544051537E-01

 457  20   1    6 C     3.67070511680E-01  3.53303028580E-01  4.45636618426E-01
 458  20   2    6 C     4.07666410155E-01 -7.85661067462E-02  5.43633815741E-02
 459  20   3    6 C     1.32929488320E-01 -4.21433893254E-01 -1.37674830993E-02
 460  20   4    6 C     9.23335898455E-02  1.46696971420E-01 -4.86232516901E-01
 461  20   5    6 C     4.45636618426E-01  3.67070511680E-01  3.53303028580E-01
 462  20   6    6 C     3.53303028580E-01  4.45636618426E-01  3.67070511680E-01
 463  20   7    6 C    -4.86232516901E-01  9.23335898455E-02  1.46696971420E-01
 464  20   8    6 C    -7.85661067462E-02  5.43633815741E-02  4.07666410155E-01
 465  20   9    6 C     5.43633815741E-02  4.07666410155E-01 -7.85661067462E-02
 466  20  10    6 C    -4.21433893254E-01 -1.37674830993E-02  1.32929488320E-01
 467  20  11    6 C    -1.37674830993E-02  1.32929488320E-01 -4.21433893254E-01
 468  20  12    6 C     1.46696971420E-01 -4.86232516901E-01  9.23335898455E-02
 469  20  13    6 C    -1.46696971420E-01 -1.32929488320E-01 -5.43633815741E-02
 470  20  14    6 C     4.21433893254E-01 -9.23335898455E-02 -4.45636618426E-01
 471  20  15    6 C     7.85661067462E-02 -3.67070511680E-01  4.86232516901E-01
 472  20  16    6 C    -3.53303028580E-01 -4.07666410155E-01  1.37674830993E-02
 473  20  17    6 C    -1.32929488320E-01 -5.43633815741E-02 -1.46696971420E-01
 474  20  18    6 C    -5.43633815741E-02 -1.46696971420E-01 -1.32929488320E-01
 475  20  19    6 C    -4.07666410155E-01  1.37674830993E-02 -3.53303028580E-01
 476  20  20    6 C    -4.45636618426E-01  4.21433893254E-01 -9.23335898455E-02
 477  20  21    6 C    -9.23335898455E-02 -4.45636618426E-01  4.21433893254E-01
 478  20  22    6 C     4.86232516901E-01  7.85661067462E-02 -3.67070511680E-01
 479  20  23    6 C    -3.67070511680E-01  4.86232516901E-01  7.85661067462E-02
 480  20  24    6 C     1.37674830993E-02 -3.53303028580E-01 -4.07666410155E-01

 481  21   1    6 C     4.03779631157E-01  3.21746439513E-01  4.57485015433E-01
 482  21   2    6 C     3.64261424080E-01 -5.37053842760E-02  4.25149845669E-02
 483  21   3    6 C     9.62203688429E-02 -4.46294615724E-01 -8.20331916445E-02
 484  21   4    6 C     1.35738575921E-01  1.78253560487E-01 -4.17966808355E-01
 485  21   5    6 C     4.57485015433E-01  4.03779631157E-01  3.21746439513E-01
 486  21   6    6 C     3.21746439513E-01  4.57485015433E-01  4.03779631157E-01
 487  21   7    6 C    -4.17966808355E-01  1.35738575921E-01  1.78253560487E-01
 488  21   8    6 C    -5.37053842760E-02  4.25149845669E-02  3.64261424080E-01
 489  21   9    6 C     4.25149845669E-02  3.64261424080E-01 -5.37053842760E-02
 490  21  10    6 C    -4.46294615724E-01 -8.20331916445E-02  9.62203688429E-02
 491  21  11    6 C    -8.20331916445E-02  9.62203688429E-02 -4.46294615724E-01
 492  21  12    6 C     1.78253560487E-01 -4.17966808355E-01  1.35738575921E-01
 493  21  13    6 C    -1.78253560487E-01 -9.62203688429E-02 -4.25149845669E-02
 494  21  14    6 C     4.46294615724E-01 -1.35738575921E-01 -4.57485015433E-01
 495  21  15    6 C     5.37053842760E-02 -4.03779631157E-01  4.17966808355E-01
 496  21  16    6 C    -3.21746439513E-01 -3.64261424079E-01  8.20331916445E-02
 497  21  17    6 C    -9.62203688429E-02 -4.25149845669E-02 -1.78253560487E-01
 498  21  18    6 C    -4.25149845669E-02 -1.78253560487E-01 -9.62203688429E-02
 499  21  19    6 C    -3.64261424079E-01  8.20331916445E-02 -3.21746439513E-01
 500  21  20    6 C    -4.57485015433E-01  4.46294615724E-01 -1.35738575921E-01
 501  21  21    6 C    -1.35738575921E-01 -4.57485015433E-01  4.46294615724E-01
 502  21  22    6 C     4.17966808355E-01  5.37053842760E-02 -4.03779631157E-01
 503  21  23    6 C    -4.03779631157E-01  4.17966808355E-01  5.37053842760E-02
 504  21  24    6 C     8.20331916445E-02 -3.21746439513E-01 -3.64261424079E-01

 505  22   1    8 O     3.67540334119E-01  3.31078245180E-01 -4.80941997857E-01
 506  22   2    8 O     3.12020243037E-01 -1.51517668024E-01 -1.90580021426E-02
 507  22   3    8 O     1.32459665881E-01 -3.48482331976E-01 -3.64620889394E-02
 508  22   4    8 O     1.87979756963E-01  1.68921754820E-01 -4.63537911061E-01
 509  22   5    8 O    -4.80941997857E-01  3.67540334119E-01  3.31078245180E-01
 510  22   6    8 O     3.31078245180E-01 -4.80941997857E-01  3.67540334119E-01
 511  22   7    8 O    -4.63537911061E-01  1.87979756963E-01  1.68921754820E-01
 512  22   8    8 O    -1.51517668024E-01 -1.90580021426E-02  3.12020243037E-01
 513  22   9    8 O    -1.90580021426E-02  3.12020243037E-01 -1.51517668024E-01
 514  22  10    8 O    -3.48482331976E-01 -3.64620889394E-02  1.32459665881E-01
 515  22  11    8 O    -3.64620889394E-02  1.32459665881E-01 -3.48482331976E-01
 516  22  12    8 O     1.68921754820E-01 -4.63537911061E-01  1.87979756963E-01
 517  22  13    8 O    -1.68921754820E-01 -1.32459665881E-01  1.90580021426E-02
 518  22  14    8 O     3.48482331976E-01 -1.87979756963E-01  4.80941997857E-01
 519  22  15    8 O     1.51517668024E-01 -3.67540334119E-01  4.63537911061E-01
 520  22  16    8 O    -3.31078245180E-01 -3.12020243037E-01  3.64620889394E-02
 521  22  17    8 O    -1.32459665881E-01  1.90580021426E-02 -1.68921754820E-01
 522  22  18    8 O     1.90580021426E-02 -1.68921754820E-01 -1.32459665881E-01
 523  22  19    8 O    -3.12020243037E-01  3.64620889394E-02 -3.31078245180E-01
 524  22  20    8 O     4.80941997857E-01  3.48482331976E-01 -1.87979756963E-01
 525  22  21    8 O    -1.87979756963E-01  4.80941997857E-01  3.48482331976E-01
 526  22  22    8 O     4.63537911061E-01  1.51517668024E-01 -3.67540334119E-01
 527  22  23    8 O    -3.67540334119E-01  4.63537911061E-01  1.51517668024E-01
 528  22  24    8 O     3.64620889394E-02 -3.31078245180E-01 -3.12020243037E-01

 529  23   1    1 H     4.14541630774E-01  2.68826687624E-01 -4.57911263276E-01
 530  23   2    1 H     2.26737950900E-01 -1.27547105949E-01 -4.20887367237E-02
 531  23   3    1 H     8.54583692257E-02 -3.72452894051E-01 -1.45714943150E-01
 532  23   4    1 H     2.73262049100E-01  2.31173312376E-01 -3.54285056850E-01
 533  23   5    1 H    -4.57911263276E-01  4.14541630774E-01  2.68826687624E-01
 534  23   6    1 H     2.68826687624E-01 -4.57911263276E-01  4.14541630774E-01
 535  23   7    1 H    -3.54285056850E-01  2.73262049100E-01  2.31173312376E-01
 536  23   8    1 H    -1.27547105949E-01 -4.20887367237E-02  2.26737950900E-01
 537  23   9    1 H    -4.20887367237E-02  2.26737950900E-01 -1.27547105949E-01
 538  23  10    1 H    -3.72452894051E-01 -1.45714943150E-01  8.54583692257E-02
 539  23  11    1 H    -1.45714943150E-01  8.54583692257E-02 -3.72452894051E-01
 540  23  12    1 H     2.31173312376E-01 -3.54285056850E-01  2.73262049100E-01
 541  23  13    1 H    -2.31173312376E-01 -8.54583692257E-02  4.20887367237E-02
 542  23  14    1 H     3.72452894051E-01 -2.73262049100E-01  4.57911263276E-01
 543  23  15    1 H     1.27547105949E-01 -4.14541630774E-01  3.54285056850E-01
 544  23  16    1 H    -2.68826687624E-01 -2.26737950900E-01  1.45714943150E-01
 545  23  17    1 H    -8.54583692257E-02  4.20887367237E-02 -2.31173312376E-01
 546  23  18    1 H     4.20887367237E-02 -2.31173312376E-01 -8.54583692257E-02
 547  23  19    1 H    -2.26737950900E-01  1.45714943150E-01 -2.68826687624E-01
 548  23  20    1 H     4.57911263276E-01  3.72452894051E-01 -2.73262049100E-01
 549  23  21    1 H    -2.73262049100E-01  4.57911263276E-01  3.72452894051E-01
 550  23  22    1 H     3.54285056850E-01  1.27547105949E-01 -4.14541630774E-01
 551  23  23    1 H    -4.14541630774E-01  3.54285056850E-01  1.27547105949E-01
 552  23  24    1 H     1.45714943150E-01 -2.68826687624E-01 -2.26737950900E-01

 553  24   1    7 N     3.54522752401E-01  3.69599918522E-01  4.26960996158E-01
 554  24   2    7 N     4.42638922364E-01 -7.24382437565E-02  7.30390038423E-02
 555  24   3    7 N     1.45477247599E-01 -4.27561756244E-01  1.50771661205E-02
 556  24   4    7 N     5.73610776360E-02  1.30400081478E-01  4.84922833880E-01
 557  24   5    7 N     4.26960996158E-01  3.54522752401E-01  3.69599918522E-01
 558  24   6    7 N     3.69599918522E-01  4.26960996158E-01  3.54522752401E-01
 559  24   7    7 N     4.84922833880E-01  5.73610776360E-02  1.30400081478E-01
 560  24   8    7 N    -7.24382437565E-02  7.30390038423E-02  4.42638922364E-01
 561  24   9    7 N     7.30390038423E-02  4.42638922364E-01 -7.24382437565E-02
 562  24  10    7 N    -4.27561756244E-01  1.50771661205E-02  1.45477247599E-01
 563  24  11    7 N     1.50771661205E-02  1.45477247599E-01 -4.27561756244E-01
 564  24  12    7 N     1.30400081478E-01  4.84922833880E-01  5.73610776360E-02
 565  24  13    7 N    -1.30400081478E-01 -1.45477247599E-01 -7.30390038423E-02
 566  24  14    7 N     4.27561756244E-01 -5.73610776360E-02 -4.26960996158E-01
 567  24  15    7 N     7.24382437565E-02 -3.54522752401E-01 -4.84922833880E-01
 568  24  16    7 N    -3.69599918522E-01 -4.42638922364E-01 -1.50771661205E-02
 569  24  17    7 N    -1.45477247599E-01 -7.30390038423E-02 -1.30400081478E-01
 570  24  18    7 N    -7.30390038423E-02 -1.30400081478E-01 -1.45477247599E-01
 571  24  19    7 N    -4.42638922364E-01 -1.50771661205E-02 -3.69599918522E-01
 572  24  20    7 N    -4.26960996158E-01  4.27561756244E-01 -5.73610776360E-02
 573  24  21    7 N    -5.73610776360E-02 -4.26960996158E-01  4.27561756244E-01
 574  24  22    7 N    -4.84922833880E-01  7.24382437565E-02 -3.54522752401E-01
 575  24  23    7 N    -3.54522752401E-01 -4.84922833880E-01  7.24382437565E-02
 576  24  24    7 N    -1.50771661205E-02 -3.69599918522E-01 -4.42638922364E-01

 577  25   1    6 C     3.89481780936E-01  3.59612980062E-01  3.96779606011E-01
 578  25   2    6 C     4.62833374051E-01 -7.29782507520E-03  1.03220393989E-01
 579  25   3    6 C     1.10518219064E-01 -4.92702174925E-01 -2.98688008743E-02
 580  25   4    6 C     3.71666259495E-02  1.40387019938E-01 -4.70131199126E-01
 581  25   5    6 C     3.96779606011E-01  3.89481780936E-01  3.59612980062E-01
 582  25   6    6 C     3.59612980062E-01  3.96779606011E-01  3.89481780936E-01
 583  25   7    6 C    -4.70131199126E-01  3.71666259495E-02  1.40387019938E-01
 584  25   8    6 C    -7.29782507520E-03  1.03220393989E-01  4.62833374051E-01
 585  25   9    6 C     1.03220393989E-01  4.62833374051E-01 -7.29782507520E-03
 586  25  10    6 C    -4.92702174925E-01 -2.98688008743E-02  1.10518219064E-01
 587  25  11    6 C    -2.98688008743E-02  1.10518219064E-01 -4.92702174925E-01
 588  25  12    6 C     1.40387019938E-01 -4.70131199126E-01  3.71666259495E-02
 589  25  13    6 C    -1.40387019938E-01 -1.10518219064E-01 -1.03220393989E-01
 590  25  14    6 C     4.92702174925E-01 -3.71666259495E-02 -3.96779606011E-01
 591  25  15    6 C     7.29782507520E-03 -3.89481780936E-01  4.70131199126E-01
 592  25  16    6 C    -3.59612980062E-01 -4.62833374050E-01  2.98688008743E-02
 593  25  17    6 C    -1.10518219064E-01 -1.03220393989E-01 -1.40387019938E-01
 594  25  18    6 C    -1.03220393989E-01 -1.40387019938E-01 -1.10518219064E-01
 595  25  19    6 C    -4.62833374050E-01  2.98688008743E-02 -3.59612980062E-01
 596  25  20    6 C    -3.96779606011E-01  4.92702174925E-01 -3.71666259495E-02
 597  25  21    6 C    -3.71666259495E-02 -3.96779606011E-01  4.92702174925E-01
 598  25  22    6 C     4.70131199126E-01  7.29782507520E-03 -3.89481780936E-01
 599  25  23    6 C    -3.89481780936E-01  4.70131199126E-01  7.29782507520E-03
 600  25  24    6 C     2.98688008743E-02 -3.59612980062E-01 -4.62833374050E-01

 601  26   1    6 C     3.67413333746E-01  3.74179464722E-01  4.04393366064E-01
 602  26   2    6 C     4.69786098658E-01 -3.69800323179E-02  9.56066339360E-02
 603  26   3    6 C     1.32586666254E-01 -4.63019967682E-01  6.76613097640E-03
 604  26   4    6 C     3.02139013415E-02  1.25820535278E-01  4.93233869024E-01
 605  26   5    6 C     4.04393366064E-01  3.67413333746E-01  3.74179464722E-01
 606  26   6    6 C     3.74179464722E-01  4.04393366064E-01  3.67413333746E-01
 607  26   7    6 C     4.93233869024E-01  3.02139013415E-02  1.25820535278E-01
 608  26   8    6 C    -3.69800323179E-02  9.56066339360E-02  4.69786098658E-01
 609  26   9    6 C     9.56066339360E-02  4.69786098658E-01 -3.69800323179E-02
 610  26  10    6 C    -4.63019967682E-01  6.76613097640E-03  1.32586666254E-01
 611  26  11    6 C     6.76613097640E-03  1.32586666254E-01 -4.63019967682E-01
 612  26  12    6 C     1.25820535278E-01  4.93233869024E-01  3.02139013415E-02
 613  26  13    6 C    -1.25820535278E-01 -1.32586666254E-01 -9.56066339360E-02
 614  26  14    6 C     4.63019967682E-01 -3.02139013415E-02 -4.04393366064E-01
 615  26  15    6 C     3.69800323179E-02 -3.67413333746E-01 -4.93233869024E-01
 616  26  16    6 C    -3.74179464722E-01 -4.69786098658E-01 -6.76613097640E-03
 617  26  17    6 C    -1.32586666254E-01 -9.56066339360E-02 -1.25820535278E-01
 618  26  18    6 C    -9.56066339360E-02 -1.25820535278E-01 -1.32586666254E-01
 619  26  19    6 C    -4.69786098658E-01 -6.76613097640E-03 -3.74179464722E-01
 620  26  20    6 C    -4.04393366064E-01  4.63019967682E-01 -3.02139013415E-02
 621  26  21    6 C    -3.02139013415E-02 -4.04393366064E-01  4.63019967682E-01
 622  26  22    6 C    -4.93233869024E-01  3.69800323179E-02 -3.67413333746E-01
 623  26  23    6 C    -3.67413333746E-01 -4.93233869024E-01  3.69800323179E-02
 624  26  24    6 C    -6.76613097640E-03 -3.74179464722E-01 -4.69786098658E-01

 625  27   1    1 H     3.41421790334E-01  3.63965618344E-01  4.79121033726E-01
 626  27   2    1 H     3.84844584618E-01 -1.37699243392E-01  2.08789662743E-02
 627  27   3    1 H     1.58578209666E-01 -3.62300756608E-01  2.25438280103E-02
 628  27   4    1 H     1.15155415382E-01  1.36034381656E-01  4.77456171990E-01
 629  27   5    1 H     4.79121033726E-01  3.41421790334E-01  3.63965618344E-01
 630  27   6    1 H     3.63965618344E-01  4.79121033726E-01  3.41421790334E-01
 631  27   7    1 H     4.77456171990E-01  1.15155415382E-01  1.36034381656E-01
 632  27   8    1 H    -1.37699243392E-01  2.08789662743E-02  3.84844584618E-01
 633  27   9    1 H     2.08789662743E-02  3.84844584618E-01 -1.37699243392E-01
 634  27  10    1 H    -3.62300756608E-01  2.25438280103E-02  1.58578209666E-01
 635  27  11    1 H     2.25438280103E-02  1.58578209666E-01 -3.62300756608E-01
 636  27  12    1 H     1.36034381656E-01  4.77456171990E-01  1.15155415382E-01
 637  27  13    1 H    -1.36034381656E-01 -1.58578209666E-01 -2.08789662743E-02
 638  27  14    1 H     3.62300756608E-01 -1.15155415382E-01 -4.79121033726E-01
 639  27  15    1 H     1.37699243392E-01 -3.41421790334E-01 -4.77456171990E-01
 640  27  16    1 H    -3.63965618344E-01 -3.84844584618E-01 -2.25438280103E-02
 641  27  17    1 H    -1.58578209666E-01 -2.08789662743E-02 -1.36034381656E-01
 642  27  18    1 H    -2.08789662743E-02 -1.36034381656E-01 -1.58578209666E-01
 643  27  19    1 H    -3.84844584618E-01 -2.25438280103E-02 -3.63965618344E-01
 644  27  20    1 H    -4.79121033726E-01  3.62300756608E-01 -1.15155415382E-01
 645  27  21    1 H    -1.15155415382E-01 -4.79121033726E-01  3.62300756608E-01
 646  27  22    1 H    -4.77456171990E-01  1.37699243392E-01 -3.41421790334E-01
 647  27  23    1 H    -3.41421790334E-01 -4.77456171990E-01  1.37699243392E-01
 648  27  24    1 H    -2.25438280103E-02 -3.63965618344E-01 -3.84844584618E-01

 649  28   1    1 H     4.20330292269E-01  3.10066695128E-01  4.50610713932E-01
 650  28   2    1 H     3.59455981197E-01 -3.02804216628E-02  4.93892860683E-02
 651  28   3    1 H     7.96697077311E-02 -4.69719578337E-01 -1.10263597140E-01
 652  28   4    1 H     1.40544018803E-01  1.89933304872E-01 -3.89736402860E-01
 653  28   5    1 H     4.50610713932E-01  4.20330292269E-01  3.10066695128E-01
 654  28   6    1 H     3.10066695128E-01  4.50610713932E-01  4.20330292269E-01
 655  28   7    1 H    -3.89736402860E-01  1.40544018803E-01  1.89933304872E-01
 656  28   8    1 H    -3.02804216628E-02  4.93892860683E-02  3.59455981197E-01
 657  28   9    1 H     4.93892860683E-02  3.59455981197E-01 -3.02804216628E-02
 658  28  10    1 H    -4.69719578337E-01 -1.10263597140E-01  7.96697077311E-02
 659  28  11    1 H    -1.10263597140E-01  7.96697077311E-02 -4.69719578337E-01
 660  28  12    1 H     1.89933304872E-01 -3.89736402860E-01  1.40544018803E-01
 661  28  13    1 H    -1.89933304872E-01 -7.96697077311E-02 -4.93892860683E-02
 662  28  14    1 H     4.69719578337E-01 -1.40544018803E-01 -4.50610713932E-01
 663  28  15    1 H     3.02804216628E-02 -4.20330292269E-01  3.89736402860E-01
 664  28  16    1 H    -3.10066695128E-01 -3.59455981197E-01  1.10263597140E-01
 665  28  17    1 H    -7.96697077311E-02 -4.93892860683E-02 -1.89933304872E-01
 666  28  18    1 H    -4.93892860683E-02 -1.89933304872E-01 -7.96697077311E-02
 667  28  19    1 H    -3.59455981197E-01  1.10263597140E-01 -3.10066695128E-01
 668  28  20    1 H    -4.50610713932E-01  4.69719578337E-01 -1.40544018803E-01
 669  28  21    1 H    -1.40544018803E-01 -4.50610713932E-01  4.69719578337E-01
 670  28  22    1 H     3.89736402860E-01  3.02804216628E-02 -4.20330292269E-01
 671  28  23    1 H    -4.20330292269E-01  3.89736402860E-01  3.02804216628E-02
 672  28  24    1 H     1.10263597140E-01 -3.10066695128E-01 -3.59455981197E-01

 673  29   1    6 C    -2.50000000000E-01 -1.25000000000E-01  1.25000000000E-01
 674  29   2    6 C     2.50000000000E-01 -3.75000000000E-01  3.75000000000E-01
 675  29   3    6 C     1.25000000000E-01 -2.50000000000E-01 -1.25000000000E-01
 676  29   4    6 C    -1.25000000000E-01  1.25000000000E-01 -2.50000000000E-01
 677  29   5    6 C     3.75000000000E-01  2.50000000000E-01 -3.75000000000E-01
 678  29   6    6 C    -3.75000000000E-01  3.75000000000E-01  2.50000000000E-01

 NUMBER OF SYMMETRY OPERATORS         :   24
 *******************************************************************************
 * GEOMETRY EDITING - INPUT COORDINATES ARE GIVEN IN ANGSTROM         
 *******************************************************************************

 GEOMETRY NOW FULLY CONSISTENT WITH THE GROUP

 GCALCO - MAX INDICES DIRECT LATTICE VECTOR    14    14    14
 NO.OF VECTORS CREATED 6999 STARS  122 RMAX   906.58334 BOHR

 GEOMETRY FOR WAVE FUNCTION - DIMENSIONALITY OF THE SYSTEM    3
 (NON PERIODIC DIRECTION: LATTICE PARAMETER FORMALLY SET TO 500)
 *******************************************************************************
 LATTICE PARAMETERS (ANGSTROMS AND DEGREES) - BOHR = 0.5291772083 ANGSTROM
 PRIMITIVE CELL - CENTRING CODE 6/0 VOLUME= 65752.397279 - DENSITY  0.228 g/cm^3
         A              B              C           ALPHA      BETA       GAMMA 
    44.03971442    44.03971442    44.03971442   109.471221 109.471221 109.471221
 *******************************************************************************
 ATOMS IN THE ASYMMETRIC UNIT   29 - ATOMS IN THE UNIT CELL:  678
     ATOM                 X/A                 Y/B                 Z/C    
 *******************************************************************************
      1 T  28 NI    4.167061141202E-01  3.137591237142E-01  3.813657475032E-01
      2 F  28 NI    4.323933762110E-01  3.534036661700E-02  1.186342524968E-01
      3 F  28 NI    8.329388587980E-02  4.646596333830E-01 -1.029469904060E-01
      4 F  28 NI    6.760662378900E-02  1.862408762858E-01 -3.970530095940E-01
      5 F  28 NI    3.813657475032E-01  4.167061141202E-01  3.137591237142E-01
      6 F  28 NI    3.137591237142E-01  3.813657475032E-01  4.167061141202E-01
      7 F  28 NI   -3.970530095940E-01  6.760662378900E-02  1.862408762858E-01
      8 F  28 NI    3.534036661700E-02  1.186342524968E-01  4.323933762110E-01
      9 F  28 NI    1.186342524968E-01  4.323933762110E-01  3.534036661700E-02
     10 F  28 NI    4.646596333830E-01 -1.029469904060E-01  8.329388587980E-02
     11 F  28 NI   -1.029469904060E-01  8.329388587980E-02  4.646596333830E-01
     12 F  28 NI    1.862408762858E-01 -3.970530095940E-01  6.760662378900E-02
     13 F  28 NI   -1.862408762858E-01 -8.329388587980E-02 -1.186342524968E-01
     14 F  28 NI   -4.646596333830E-01 -6.760662378900E-02 -3.813657475032E-01
     15 F  28 NI   -3.534036661700E-02 -4.167061141202E-01  3.970530095940E-01
     16 F  28 NI   -3.137591237142E-01 -4.323933762110E-01  1.029469904060E-01
     17 F  28 NI   -8.329388587980E-02 -1.186342524968E-01 -1.862408762858E-01
     18 F  28 NI   -1.186342524968E-01 -1.862408762858E-01 -8.329388587980E-02
     19 F  28 NI   -4.323933762110E-01  1.029469904060E-01 -3.137591237142E-01
     20 F  28 NI   -3.813657475032E-01 -4.646596333830E-01 -6.760662378900E-02
     21 F  28 NI   -6.760662378900E-02 -3.813657475032E-01 -4.646596333830E-01
     22 F  28 NI    3.970530095940E-01 -3.534036661700E-02 -4.167061141202E-01
     23 F  28 NI   -4.167061141202E-01  3.970530095940E-01 -3.534036661700E-02
     24 F  28 NI    1.029469904060E-01 -3.137591237142E-01 -4.323933762110E-01
     25 T  17 CL    3.955450933538E-01  2.663319103851E-01  3.877048428019E-01
     26 F  17 CL    3.786270675832E-01  7.840250551900E-03  1.122951571981E-01
     27 F  17 CL    1.044549066462E-01  4.921597494481E-01 -1.292131829687E-01
     28 F  17 CL    1.213729324168E-01  2.336680896149E-01 -3.707868170313E-01
     29 F  17 CL    3.877048428019E-01  3.955450933538E-01  2.663319103851E-01
     30 F  17 CL    2.663319103851E-01  3.877048428019E-01  3.955450933538E-01
     31 F  17 CL   -3.707868170313E-01  1.213729324168E-01  2.336680896149E-01
     32 F  17 CL    7.840250551900E-03  1.122951571981E-01  3.786270675832E-01
     33 F  17 CL    1.122951571981E-01  3.786270675832E-01  7.840250551900E-03
     34 F  17 CL    4.921597494481E-01 -1.292131829687E-01  1.044549066462E-01
     35 F  17 CL   -1.292131829687E-01  1.044549066462E-01  4.921597494481E-01
     36 F  17 CL    2.336680896149E-01 -3.707868170313E-01  1.213729324168E-01
     37 F  17 CL   -2.336680896149E-01 -1.044549066462E-01 -1.122951571981E-01
     38 F  17 CL   -4.921597494481E-01 -1.213729324168E-01 -3.877048428019E-01
     39 F  17 CL   -7.840250551900E-03 -3.955450933538E-01  3.707868170313E-01
     40 F  17 CL   -2.663319103851E-01 -3.786270675832E-01  1.292131829687E-01
     41 F  17 CL   -1.044549066462E-01 -1.122951571981E-01 -2.336680896149E-01
     42 F  17 CL   -1.122951571981E-01 -2.336680896149E-01 -1.044549066462E-01
     43 F  17 CL   -3.786270675832E-01  1.292131829687E-01 -2.663319103851E-01
     44 F  17 CL   -3.877048428019E-01 -4.921597494481E-01 -1.213729324168E-01
     45 F  17 CL   -1.213729324168E-01 -3.877048428019E-01 -4.921597494481E-01
     46 F  17 CL    3.707868170313E-01 -7.840250551900E-03 -3.955450933538E-01
     47 F  17 CL   -3.955450933538E-01  3.707868170313E-01 -7.840250551900E-03
     48 F  17 CL    1.292131829687E-01 -2.663319103851E-01 -3.786270675832E-01
     49 T   6 C     3.719616443594E-01  3.359346142173E-01  4.915615177971E-01
     50 F   6 C     3.443730964202E-01 -1.195998734377E-01  8.438482202900E-03
     51 F   6 C     1.280383556406E-01 -3.804001265623E-01 -3.602703014210E-02
     52 F   6 C     1.556269035798E-01  1.640653857827E-01 -4.639729698579E-01
     53 F   6 C     4.915615177971E-01  3.719616443594E-01  3.359346142173E-01
     54 F   6 C     3.359346142173E-01  4.915615177971E-01  3.719616443594E-01
     55 F   6 C    -4.639729698579E-01  1.556269035798E-01  1.640653857827E-01
     56 F   6 C    -1.195998734377E-01  8.438482202900E-03  3.443730964202E-01
     57 F   6 C     8.438482202900E-03  3.443730964202E-01 -1.195998734377E-01
     58 F   6 C    -3.804001265623E-01 -3.602703014210E-02  1.280383556406E-01
     59 F   6 C    -3.602703014210E-02  1.280383556406E-01 -3.804001265623E-01
     60 F   6 C     1.640653857827E-01 -4.639729698579E-01  1.556269035798E-01
     61 F   6 C    -1.640653857827E-01 -1.280383556406E-01 -8.438482202900E-03
     62 F   6 C     3.804001265623E-01 -1.556269035798E-01 -4.915615177971E-01
     63 F   6 C     1.195998734377E-01 -3.719616443594E-01  4.639729698579E-01
     64 F   6 C    -3.359346142173E-01 -3.443730964202E-01  3.602703014210E-02
     65 F   6 C    -1.280383556406E-01 -8.438482202900E-03 -1.640653857827E-01
     66 F   6 C    -8.438482202900E-03 -1.640653857827E-01 -1.280383556406E-01
     67 F   6 C    -3.443730964202E-01  3.602703014210E-02 -3.359346142173E-01
     68 F   6 C    -4.915615177971E-01  3.804001265623E-01 -1.556269035798E-01
     69 F   6 C    -1.556269035798E-01 -4.915615177971E-01  3.804001265623E-01
     70 F   6 C     4.639729698579E-01  1.195998734377E-01 -3.719616443594E-01
     71 F   6 C    -3.719616443594E-01  4.639729698579E-01  1.195998734377E-01
     72 F   6 C     3.602703014210E-02 -3.359346142173E-01 -3.443730964202E-01
     73 T   1 H     3.542952173162E-01  3.214399950005E-01 -4.286813384417E-01
     74 F   1 H     2.501213334422E-01 -2.170234442421E-01 -7.131866155830E-02
     75 F   1 H     1.457047826838E-01 -2.829765557579E-01 -3.285522231570E-02
     76 F   1 H     2.498786665578E-01  1.785600049995E-01 -4.671447776843E-01
     77 F   1 H    -4.286813384417E-01  3.542952173162E-01  3.214399950005E-01
     78 F   1 H     3.214399950005E-01 -4.286813384417E-01  3.542952173162E-01
     79 F   1 H    -4.671447776843E-01  2.498786665578E-01  1.785600049995E-01
     80 F   1 H    -2.170234442421E-01 -7.131866155830E-02  2.501213334422E-01
     81 F   1 H    -7.131866155830E-02  2.501213334422E-01 -2.170234442421E-01
     82 F   1 H    -2.829765557579E-01 -3.285522231570E-02  1.457047826838E-01
     83 F   1 H    -3.285522231570E-02  1.457047826838E-01 -2.829765557579E-01
     84 F   1 H     1.785600049995E-01 -4.671447776843E-01  2.498786665578E-01
     85 F   1 H    -1.785600049995E-01 -1.457047826838E-01  7.131866155830E-02
     86 F   1 H     2.829765557579E-01 -2.498786665578E-01  4.286813384417E-01
     87 F   1 H     2.170234442421E-01 -3.542952173162E-01  4.671447776843E-01
     88 F   1 H    -3.214399950005E-01 -2.501213334422E-01  3.285522231570E-02
     89 F   1 H    -1.457047826838E-01  7.131866155830E-02 -1.785600049995E-01
     90 F   1 H     7.131866155830E-02 -1.785600049995E-01 -1.457047826838E-01
     91 F   1 H    -2.501213334422E-01  3.285522231570E-02 -3.214399950005E-01
     92 F   1 H     4.286813384417E-01  2.829765557579E-01 -2.498786665578E-01
     93 F   1 H    -2.498786665578E-01  4.286813384417E-01  2.829765557579E-01
     94 F   1 H     4.671447776843E-01  2.170234442421E-01 -3.542952173162E-01
     95 F   1 H    -3.542952173162E-01  4.671447776843E-01  2.170234442421E-01
     96 F   1 H     3.285522231570E-02 -3.214399950005E-01 -2.501213334422E-01
     97 T   6 C     3.586727772646E-01  3.525576265676E-01  4.737605591644E-01
     98 F   6 C     3.787970674032E-01 -1.150877818998E-01  2.623944083560E-02
     99 F   6 C     1.413272227354E-01 -3.849122181002E-01 -6.115150697000E-03
    100 F   6 C     1.212029325968E-01  1.474423734324E-01 -4.938848493030E-01
    101 F   6 C     4.737605591644E-01  3.586727772646E-01  3.525576265676E-01
    102 F   6 C     3.525576265676E-01  4.737605591644E-01  3.586727772646E-01
    103 F   6 C    -4.938848493030E-01  1.212029325968E-01  1.474423734324E-01
    104 F   6 C    -1.150877818998E-01  2.623944083560E-02  3.787970674032E-01
    105 F   6 C     2.623944083560E-02  3.787970674032E-01 -1.150877818998E-01
    106 F   6 C    -3.849122181002E-01 -6.115150697000E-03  1.413272227354E-01
    107 F   6 C    -6.115150697000E-03  1.413272227354E-01 -3.849122181002E-01
    108 F   6 C     1.474423734324E-01 -4.938848493030E-01  1.212029325968E-01
    109 F   6 C    -1.474423734324E-01 -1.413272227354E-01 -2.623944083560E-02
    110 F   6 C     3.849122181002E-01 -1.212029325968E-01 -4.737605591644E-01
    111 F   6 C     1.150877818998E-01 -3.586727772646E-01  4.938848493030E-01
    112 F   6 C    -3.525576265676E-01 -3.787970674032E-01  6.115150697000E-03
    113 F   6 C    -1.413272227354E-01 -2.623944083560E-02 -1.474423734324E-01
    114 F   6 C    -2.623944083560E-02 -1.474423734324E-01 -1.413272227354E-01
    115 F   6 C    -3.787970674032E-01  6.115150697000E-03 -3.525576265676E-01
    116 F   6 C    -4.737605591644E-01  3.849122181002E-01 -1.212029325968E-01
    117 F   6 C    -1.212029325968E-01 -4.737605591644E-01  3.849122181002E-01
    118 F   6 C     4.938848493030E-01  1.150877818998E-01 -3.586727772646E-01
    119 F   6 C    -3.586727772646E-01  4.938848493030E-01  1.150877818998E-01
    120 F   6 C     6.115150697000E-03 -3.525576265676E-01 -3.787970674032E-01
    121 T   6 C     3.939300881834E-01  3.207214126600E-01  4.834978080786E-01
    122 F   6 C     3.372236045814E-01 -8.956771989520E-02  1.650219192140E-02
    123 F   6 C     1.060699118166E-01 -4.104322801048E-01 -7.320867552340E-02
    124 F   6 C     1.627763954186E-01  1.792785873400E-01 -4.267913244766E-01
    125 F   6 C     4.834978080786E-01  3.939300881834E-01  3.207214126600E-01
    126 F   6 C     3.207214126600E-01  4.834978080786E-01  3.939300881834E-01
    127 F   6 C    -4.267913244766E-01  1.627763954186E-01  1.792785873400E-01
    128 F   6 C    -8.956771989520E-02  1.650219192140E-02  3.372236045814E-01
    129 F   6 C     1.650219192140E-02  3.372236045814E-01 -8.956771989520E-02
    130 F   6 C    -4.104322801048E-01 -7.320867552340E-02  1.060699118166E-01
    131 F   6 C    -7.320867552340E-02  1.060699118166E-01 -4.104322801048E-01
    132 F   6 C     1.792785873400E-01 -4.267913244766E-01  1.627763954186E-01
    133 F   6 C    -1.792785873400E-01 -1.060699118166E-01 -1.650219192140E-02
    134 F   6 C     4.104322801048E-01 -1.627763954186E-01 -4.834978080786E-01
    135 F   6 C     8.956771989520E-02 -3.939300881834E-01  4.267913244766E-01
    136 F   6 C    -3.207214126600E-01 -3.372236045814E-01  7.320867552340E-02
    137 F   6 C    -1.060699118166E-01 -1.650219192140E-02 -1.792785873400E-01
    138 F   6 C    -1.650219192140E-02 -1.792785873400E-01 -1.060699118166E-01
    139 F   6 C    -3.372236045814E-01  7.320867552340E-02 -3.207214126600E-01
    140 F   6 C    -4.834978080786E-01  4.104322801048E-01 -1.627763954186E-01
    141 F   6 C    -1.627763954186E-01 -4.834978080786E-01  4.104322801048E-01
    142 F   6 C     4.267913244766E-01  8.956771989520E-02 -3.939300881834E-01
    143 F   6 C    -3.939300881834E-01  4.267913244766E-01  8.956771989520E-02
    144 F   6 C     7.320867552340E-02 -3.207214126600E-01 -3.372236045814E-01
    145 T   6 C     4.007660622843E-01  2.749932356927E-01 -4.421723295572E-01
    146 F   6 C     2.171655652499E-01 -1.570616081585E-01 -5.782767044280E-02
    147 F   6 C     9.923393771574E-02 -3.429383918415E-01 -1.257728265916E-01
    148 F   6 C     2.828344347501E-01  2.250067643073E-01 -3.742271734084E-01
    149 F   6 C    -4.421723295572E-01  4.007660622843E-01  2.749932356927E-01
    150 F   6 C     2.749932356927E-01 -4.421723295572E-01  4.007660622843E-01
    151 F   6 C    -3.742271734084E-01  2.828344347501E-01  2.250067643073E-01
    152 F   6 C    -1.570616081585E-01 -5.782767044280E-02  2.171655652499E-01
    153 F   6 C    -5.782767044280E-02  2.171655652499E-01 -1.570616081585E-01
    154 F   6 C    -3.429383918415E-01 -1.257728265916E-01  9.923393771574E-02
    155 F   6 C    -1.257728265916E-01  9.923393771574E-02 -3.429383918415E-01
    156 F   6 C     2.250067643073E-01 -3.742271734084E-01  2.828344347501E-01
    157 F   6 C    -2.250067643073E-01 -9.923393771574E-02  5.782767044280E-02
    158 F   6 C     3.429383918415E-01 -2.828344347501E-01  4.421723295572E-01
    159 F   6 C     1.570616081585E-01 -4.007660622843E-01  3.742271734084E-01
    160 F   6 C    -2.749932356927E-01 -2.171655652499E-01  1.257728265916E-01
    161 F   6 C    -9.923393771574E-02  5.782767044280E-02 -2.250067643073E-01
    162 F   6 C     5.782767044280E-02 -2.250067643073E-01 -9.923393771574E-02
    163 F   6 C    -2.171655652499E-01  1.257728265916E-01 -2.749932356927E-01
    164 F   6 C     4.421723295572E-01  3.429383918415E-01 -2.828344347501E-01
    165 F   6 C    -2.828344347501E-01  4.421723295572E-01  3.429383918415E-01
    166 F   6 C     3.742271734084E-01  1.570616081585E-01 -4.007660622843E-01
    167 F   6 C    -4.007660622843E-01  3.742271734084E-01  1.570616081585E-01
    168 F   6 C     1.257728265916E-01 -2.749932356927E-01 -2.171655652499E-01
    169 T   6 C     3.852986226043E-01  2.975031075893E-01 -4.457765988172E-01
    170 F   6 C     2.432797064065E-01 -1.689247785785E-01 -5.422340118280E-02
    171 F   6 C     1.147013773957E-01 -3.310752214215E-01 -8.779551501500E-02
    172 F   6 C     2.567202935935E-01  2.024968924107E-01 -4.122044849850E-01
    173 F   6 C    -4.457765988172E-01  3.852986226043E-01  2.975031075893E-01
    174 F   6 C     2.975031075893E-01 -4.457765988172E-01  3.852986226043E-01
    175 F   6 C    -4.122044849850E-01  2.567202935935E-01  2.024968924107E-01
    176 F   6 C    -1.689247785785E-01 -5.422340118280E-02  2.432797064065E-01
    177 F   6 C    -5.422340118280E-02  2.432797064065E-01 -1.689247785785E-01
    178 F   6 C    -3.310752214215E-01 -8.779551501500E-02  1.147013773957E-01
    179 F   6 C    -8.779551501500E-02  1.147013773957E-01 -3.310752214215E-01
    180 F   6 C     2.024968924107E-01 -4.122044849850E-01  2.567202935935E-01
    181 F   6 C    -2.024968924107E-01 -1.147013773957E-01  5.422340118280E-02
    182 F   6 C     3.310752214215E-01 -2.567202935935E-01  4.457765988172E-01
    183 F   6 C     1.689247785785E-01 -3.852986226043E-01  4.122044849850E-01
    184 F   6 C    -2.975031075893E-01 -2.432797064065E-01  8.779551501500E-02
    185 F   6 C    -1.147013773957E-01  5.422340118280E-02 -2.024968924107E-01
    186 F   6 C     5.422340118280E-02 -2.024968924107E-01 -1.147013773957E-01
    187 F   6 C    -2.432797064065E-01  8.779551501500E-02 -2.975031075893E-01
    188 F   6 C     4.457765988172E-01  3.310752214215E-01 -2.567202935935E-01
    189 F   6 C    -2.567202935935E-01  4.457765988172E-01  3.310752214215E-01
    190 F   6 C     4.122044849850E-01  1.689247785785E-01 -3.852986226043E-01
    191 F   6 C    -3.852986226043E-01  4.122044849850E-01  1.689247785785E-01
    192 F   6 C     8.779551501500E-02 -2.975031075893E-01 -2.432797064065E-01
    193 T   6 C     3.642016933277E-01  2.890775941323E-01 -4.034137703748E-01
    194 F   6 C     1.924913645071E-01 -2.323845362975E-01 -9.658622962520E-02
    195 F   6 C     1.357983066723E-01 -2.676154637025E-01 -7.512409919540E-02
    196 F   6 C     3.075086354929E-01  2.109224058677E-01 -4.248759008046E-01
    197 F   6 C    -4.034137703748E-01  3.642016933277E-01  2.890775941323E-01
    198 F   6 C     2.890775941323E-01 -4.034137703748E-01  3.642016933277E-01
    199 F   6 C    -4.248759008046E-01  3.075086354929E-01  2.109224058677E-01
    200 F   6 C    -2.323845362975E-01 -9.658622962520E-02  1.924913645071E-01
    201 F   6 C    -9.658622962520E-02  1.924913645071E-01 -2.323845362975E-01
    202 F   6 C    -2.676154637025E-01 -7.512409919540E-02  1.357983066723E-01
    203 F   6 C    -7.512409919540E-02  1.357983066723E-01 -2.676154637025E-01
    204 F   6 C     2.109224058677E-01 -4.248759008046E-01  3.075086354929E-01
    205 F   6 C    -2.109224058677E-01 -1.357983066723E-01  9.658622962520E-02
    206 F   6 C     2.676154637025E-01 -3.075086354929E-01  4.034137703748E-01
    207 F   6 C     2.323845362975E-01 -3.642016933277E-01  4.248759008046E-01
    208 F   6 C    -2.890775941323E-01 -1.924913645071E-01  7.512409919540E-02
[...]
 580 C    6  0.000  0.000  0.000  0.000 -0.000 -0.000  0.000
 581 C    6  0.000  0.000  0.000  0.000 -0.000 -0.000  0.000
 582 C    6  0.000  0.000  0.000  0.000 -0.000 -0.000  0.000
 583 C    6  0.000  0.000  0.000  0.000 -0.000 -0.000  0.000
 584 C    6  0.000  0.000  0.000  0.000 -0.000 -0.000  0.000
 585 C    6  0.000  0.000  0.000  0.000 -0.000 -0.000  0.000
 586 C    6  0.000  0.000  0.000  0.000 -0.000 -0.000  0.000
 587 C    6  0.000  0.000  0.000  0.000 -0.000 -0.000  0.000
 588 C    6  0.000  0.000  0.000  0.000 -0.000 -0.000  0.000
 589 C    6  0.000  0.000  0.000  0.000 -0.000 -0.000  0.000
 590 C    6  0.000  0.000  0.000  0.000 -0.000 -0.000  0.000
 591 C    6  0.000  0.000  0.000  0.000 -0.000 -0.000  0.000
 592 C    6  0.000  0.000  0.000  0.000 -0.000 -0.000  0.000
 593 C    6  0.000  0.000  0.000  0.000 -0.000 -0.000  0.000
 594 C    6  0.000  0.000  0.000  0.000 -0.000 -0.000  0.000
 595 C    6  0.000  0.000  0.000  0.000 -0.000 -0.000  0.000
 596 C    6  0.000  0.000  0.000  0.000 -0.000 -0.000  0.000
 597 C    6  0.000  0.000  0.000  0.000 -0.000 -0.000  0.000
 598 C    6  0.000  0.000  0.000  0.000 -0.000 -0.000  0.000
 599 C    6  0.000  0.000  0.000  0.000 -0.000 -0.000  0.000
 600 C    6  0.000  0.000  0.000  0.000 -0.000 -0.000  0.000
 601 C    6  0.000 -0.000 -0.000  0.000  0.000 -0.000  0.000
 602 C    6  0.000 -0.000 -0.000  0.000  0.000 -0.000  0.000
 603 C    6  0.000 -0.000 -0.000  0.000  0.000 -0.000  0.000
 604 C    6  0.000 -0.000 -0.000  0.000  0.000 -0.000  0.000
 605 C    6  0.000 -0.000 -0.000  0.000  0.000 -0.000  0.000
 606 C    6  0.000 -0.000 -0.000  0.000  0.000 -0.000  0.000
 607 C    6  0.000 -0.000 -0.000  0.000  0.000 -0.000  0.000
 608 C    6  0.000 -0.000 -0.000  0.000  0.000 -0.000  0.000
 609 C    6  0.000 -0.000 -0.000  0.000  0.000 -0.000  0.000
 610 C    6  0.000 -0.000 -0.000  0.000  0.000 -0.000  0.000
 611 C    6  0.000 -0.000 -0.000  0.000  0.000 -0.000  0.000
 612 C    6  0.000 -0.000 -0.000  0.000  0.000 -0.000  0.000
 613 C    6  0.000 -0.000 -0.000  0.000  0.000 -0.000  0.000
 614 C    6  0.000 -0.000 -0.000  0.000  0.000 -0.000  0.000
 615 C    6  0.000 -0.000 -0.000  0.000  0.000 -0.000  0.000
 616 C    6  0.000 -0.000 -0.000  0.000  0.000 -0.000  0.000
 617 C    6  0.000 -0.000 -0.000  0.000  0.000 -0.000  0.000
 618 C    6  0.000 -0.000 -0.000  0.000  0.000 -0.000  0.000
 619 C    6  0.000 -0.000 -0.000  0.000  0.000 -0.000  0.000
 620 C    6  0.000 -0.000 -0.000  0.000  0.000 -0.000  0.000
 621 C    6  0.000 -0.000 -0.000  0.000  0.000 -0.000  0.000
 622 C    6  0.000 -0.000 -0.000  0.000  0.000 -0.000  0.000
 623 C    6  0.000 -0.000 -0.000  0.000  0.000 -0.000  0.000
 624 C    6  0.000 -0.000 -0.000  0.000  0.000 -0.000  0.000
 625 H    1  0.000  0.000  0.000  0.000
 626 H    1  0.000  0.000  0.000  0.000
 627 H    1  0.000  0.000  0.000  0.000
 628 H    1  0.000  0.000  0.000  0.000
 629 H    1  0.000  0.000  0.000  0.000
 630 H    1  0.000  0.000  0.000  0.000
 631 H    1  0.000  0.000  0.000  0.000
 632 H    1  0.000  0.000  0.000  0.000
 633 H    1  0.000  0.000  0.000  0.000
 634 H    1  0.000  0.000  0.000  0.000
 635 H    1  0.000  0.000  0.000  0.000
 636 H    1  0.000  0.000  0.000  0.000
 637 H    1  0.000  0.000  0.000  0.000
 638 H    1  0.000  0.000  0.000  0.000
 639 H    1  0.000  0.000  0.000  0.000
 640 H    1  0.000  0.000  0.000  0.000
 641 H    1  0.000  0.000  0.000  0.000
 642 H    1  0.000  0.000  0.000  0.000
 643 H    1  0.000  0.000  0.000  0.000
 644 H    1  0.000  0.000  0.000  0.000
 645 H    1  0.000  0.000  0.000  0.000
 646 H    1  0.000  0.000  0.000  0.000
 647 H    1  0.000  0.000  0.000  0.000
 648 H    1  0.000  0.000  0.000  0.000
 649 H    1  0.000  0.000  0.000  0.000
 650 H    1  0.000  0.000  0.000  0.000
 651 H    1  0.000  0.000  0.000  0.000
 652 H    1  0.000  0.000  0.000  0.000
 653 H    1  0.000  0.000  0.000  0.000
 654 H    1  0.000  0.000  0.000  0.000
 655 H    1  0.000  0.000  0.000  0.000
 656 H    1  0.000  0.000  0.000  0.000
 657 H    1  0.000  0.000  0.000  0.000
 658 H    1  0.000  0.000  0.000  0.000
 659 H    1  0.000  0.000  0.000  0.000
 660 H    1  0.000  0.000  0.000  0.000
 661 H    1  0.000  0.000  0.000  0.000
 662 H    1  0.000  0.000  0.000  0.000
 663 H    1  0.000  0.000  0.000  0.000
 664 H    1  0.000  0.000  0.000  0.000
 665 H    1  0.000  0.000  0.000  0.000
 666 H    1  0.000  0.000  0.000  0.000
 667 H    1  0.000  0.000  0.000  0.000
 668 H    1  0.000  0.000  0.000  0.000
 669 H    1  0.000  0.000  0.000  0.000
 670 H    1  0.000  0.000  0.000  0.000
 671 H    1  0.000  0.000  0.000  0.000
 672 H    1  0.000  0.000  0.000  0.000
 673 C    6 -0.000 -0.000 -0.000  0.000 -0.000 -0.000  0.000
 674 C    6 -0.000 -0.000 -0.000  0.000 -0.000 -0.000  0.000
 675 C    6 -0.000 -0.000 -0.000  0.000 -0.000 -0.000  0.000
 676 C    6 -0.000 -0.000 -0.000  0.000 -0.000 -0.000  0.000
 677 C    6 -0.000 -0.000 -0.000  0.000 -0.000 -0.000  0.000
 678 C    6 -0.000 -0.000 -0.000  0.000 -0.000 -0.000  0.000

 OVERLAP POPULATION CONDENSED TO ATOMS FOR FIRST   6 NEIGHBORS

 ATOM A   1 NI   ATOM B     CELL      R(AB)/AU R(AB)/ANG    OVPOP(AB)
                557 N    (  0  0  0)     3.747     1.983    -0.000
                313 N    (  0  0  0)     3.747     1.983    -0.000
                217 CL   (  0  0  0)     4.040     2.138     0.000
                 25 CL   (  0  0  0)     4.041     2.139     0.000
                605 C    (  0  0  0)     5.076     2.686    -0.000
                577 C    (  0  0  0)     5.077     2.687    -0.000

 ATOM A  25 CL   ATOM B     CELL      R(AB)/AU R(AB)/ANG    OVPOP(AB)
                  1 NI   (  0  0  0)     4.041     2.139     0.000
                649 H    (  0  0  0)     4.472     2.367    -0.000
                313 N    (  0  0  0)     5.640     2.984     0.000
                217 CL   (  0  0  0)     5.656     2.993     0.000
                481 C    (  0  0  0)     5.731     3.033     0.000
                409 C    (  0  0  0)     6.288     3.327    -0.000

 ATOM A  49 C    ATOM B     CELL      R(AB)/AU R(AB)/ANG    OVPOP(AB)
                505 O    (  0  0  0)     2.572     1.361     0.000
                 97 C    (  0  0  0)     2.574     1.362    -0.000
                121 C    (  0  0  0)     2.682     1.419    -0.000
                625 H    (  0  0  0)     4.097     2.168    -0.000
                289 B    (  0  0  0)     4.170     2.207    -0.000
                337 O    (  0  0  0)     4.269     2.259     0.000

 ATOM A  73 H    ATOM B     CELL      R(AB)/AU R(AB)/ANG    OVPOP(AB)
                241 C    (  0  0  0)     2.059     1.089    -0.000
                193 C    (  0  0  0)     4.057     2.147    -0.000
                169 C    (  0  0  0)     4.079     2.158    -0.000
                433 H    (  0  0  0)     4.680     2.476    -0.000
                505 O    (  0  0  0)     5.070     2.683    -0.000
                289 B    (  0  0  0)     5.173     2.738    -0.000

 ATOM A  97 C    ATOM B     CELL      R(AB)/AU R(AB)/ANG    OVPOP(AB)
                625 H    (  0  0  0)     2.053     1.086     0.000
                 49 C    (  0  0  0)     2.574     1.362    -0.000
                457 C    (  0  0  0)     2.670     1.413    -0.000
                553 N    (  0  0  0)     4.518     2.391    -0.000
                121 C    (  0  0  0)     4.617     2.443    -0.000
                505 O    (  0  0  0)     4.633     2.452     0.000

 ATOM A 121 C    ATOM B     CELL      R(AB)/AU R(AB)/ANG    OVPOP(AB)
                337 O    (  0  0  0)     2.573     1.361    -0.000
                481 C    (  0  0  0)     2.574     1.362    -0.000
                 49 C    (  0  0  0)     2.682     1.419    -0.000
                649 H    (  0  0  0)     4.098     2.169     0.000
                289 B    (  0  0  0)     4.170     2.207     0.000
                505 O    (  0  0  0)     4.268     2.259     0.000

 ATOM A 145 C    ATOM B     CELL      R(AB)/AU R(AB)/ANG    OVPOP(AB)
                529 H    (  0  0  0)     2.059     1.089     0.000
                385 C    (  0  0  0)     2.631     1.392    -0.000
                169 C    (  0  0  0)     2.642     1.398    -0.000
                265 H    (  0  0  0)     4.066     2.152    -0.000
                241 C    (  0  0  0)     4.544     2.405     0.000
                361 C    (  0  0  0)     4.572     2.419    -0.000

 ATOM A 169 C    ATOM B     CELL      R(AB)/AU R(AB)/ANG    OVPOP(AB)
                145 C    (  0  0  0)     2.642     1.398    -0.000
                241 C    (  0  0  0)     2.652     1.403     0.000
                289 B    (  0  0  0)     2.876     1.522     0.000
                529 H    (  0  0  0)     4.067     2.152    -0.000
                 73 H    (  0  0  0)     4.079     2.158    -0.000
                193 C    (  0  0  0)     4.578     2.423     0.000

 ATOM A 193 C    ATOM B     CELL      R(AB)/AU R(AB)/ANG    OVPOP(AB)
                433 H    (  0  0  0)     2.060     1.090    -0.000
                241 C    (  0  0  0)     2.617     1.385     0.000
                361 C    (  0  0  0)     2.654     1.404     0.000
                 73 H    (  0  0  0)     4.057     2.147    -0.000
                385 C    (  0  0  0)     4.547     2.406     0.000
                169 C    (  0  0  0)     4.578     2.423     0.000

 ATOM A 217 CL   ATOM B     CELL      R(AB)/AU R(AB)/ANG    OVPOP(AB)
                  1 NI   (  0  0  0)     4.040     2.138     0.000
                629 H    (  0  0  0)     4.493     2.377    -0.000
                557 N    (  0  0  0)     5.635     2.982     0.000
                 25 CL   (  0  0  0)     5.656     2.993     0.000
                101 C    (  0  0  0)     5.722     3.028    -0.000
                461 C    (  0  0  0)     6.272     3.319    -0.000

 ATOM A 241 C    ATOM B     CELL      R(AB)/AU R(AB)/ANG    OVPOP(AB)
                 73 H    (  0  0  0)     2.059     1.089    -0.000
                193 C    (  0  0  0)     2.617     1.385     0.000
                169 C    (  0  0  0)     2.652     1.403     0.000
                433 H    (  0  0  0)     4.064     2.151    -0.000
                145 C    (  0  0  0)     4.544     2.405     0.000
                361 C    (  0  0  0)     4.586     2.427    -0.000

 ATOM A 265 H    ATOM B     CELL      R(AB)/AU R(AB)/ANG    OVPOP(AB)
                385 C    (  0  0  0)     2.056     1.088     0.000
                145 C    (  0  0  0)     4.066     2.152    -0.000
                361 C    (  0  0  0)     4.068     2.153     0.000
                214 C    (  0  0  0)     4.601     2.435    -0.000
                529 H    (  0  0  0)     4.670     2.471    -0.000
                382 C    (  0  0  0)     4.702     2.488    -0.000

 ATOM A 289 B    ATOM B     CELL      R(AB)/AU R(AB)/ANG    OVPOP(AB)
                337 O    (  0  0  0)     2.640     1.397    -0.000
                505 O    (  0  0  0)     2.641     1.397     0.000
                169 C    (  0  0  0)     2.876     1.522     0.000
                121 C    (  0  0  0)     4.170     2.207     0.000
                 49 C    (  0  0  0)     4.170     2.207    -0.000
                241 C    (  0  0  0)     4.803     2.542     0.000

 ATOM A 313 N    ATOM B     CELL      R(AB)/AU R(AB)/ANG    OVPOP(AB)
                577 C    (  0  0  0)     2.524     1.336    -0.000
                409 C    (  0  0  0)     2.572     1.361    -0.000
                  1 NI   (  0  0  0)     3.747     1.983    -0.000
                605 C    (  0  0  0)     4.470     2.365    -0.000
                481 C    (  0  0  0)     4.519     2.391    -0.000
                601 C    (  0  0  0)     4.534     2.399     0.000

 ATOM A 337 O    ATOM B     CELL      R(AB)/AU R(AB)/ANG    OVPOP(AB)
                121 C    (  0  0  0)     2.573     1.361    -0.000
                289 B    (  0  0  0)     2.640     1.397    -0.000
                 49 C    (  0  0  0)     4.269     2.259     0.000
                505 O    (  0  0  0)     4.328     2.290     0.000
                481 C    (  0  0  0)     4.635     2.453    -0.000
                169 C    (  0  0  0)     4.900     2.593    -0.000

 ATOM A 361 C    ATOM B     CELL      R(AB)/AU R(AB)/ANG    OVPOP(AB)
                385 C    (  0  0  0)     2.636     1.395     0.000
                193 C    (  0  0  0)     2.654     1.404     0.000
                677 C    (  0  0  0)     2.897     1.533     0.000
                265 H    (  0  0  0)     4.068     2.153     0.000
                433 H    (  0  0  0)     4.069     2.153     0.000
                145 C    (  0  0  0)     4.572     2.419    -0.000

 ATOM A 385 C    ATOM B     CELL      R(AB)/AU R(AB)/ANG    OVPOP(AB)
                265 H    (  0  0  0)     2.056     1.088     0.000
                145 C    (  0  0  0)     2.631     1.392    -0.000
                361 C    (  0  0  0)     2.636     1.395     0.000
                529 H    (  0  0  0)     4.063     2.150    -0.000
                193 C    (  0  0  0)     4.547     2.406     0.000
                169 C    (  0  0  0)     4.592     2.430     0.000

 ATOM A 409 C    ATOM B     CELL      R(AB)/AU R(AB)/ANG    OVPOP(AB)
                313 N    (  0  0  0)     2.572     1.361    -0.000
                481 C    (  0  0  0)     2.670     1.413     0.000
                457 C    (  0  0  0)     2.764     1.463     0.000
                649 H    (  0  0  0)     4.084     2.161    -0.000
                577 C    (  0  0  0)     4.337     2.295    -0.000
                121 C    (  0  0  0)     4.462     2.361    -0.000

 ATOM A 433 H    ATOM B     CELL      R(AB)/AU R(AB)/ANG    OVPOP(AB)
                193 C    (  0  0  0)     2.060     1.090    -0.000
                241 C    (  0  0  0)     4.064     2.151    -0.000
                361 C    (  0  0  0)     4.069     2.153     0.000
                 73 H    (  0  0  0)     4.680     2.476    -0.000
                364 C    (  0  0  0)     4.822     2.552     0.000
                284 H    (  0  0  0)     4.838     2.560     0.000

 ATOM A 457 C    ATOM B     CELL      R(AB)/AU R(AB)/ANG    OVPOP(AB)
                553 N    (  0  0  0)     2.572     1.361    -0.000
                 97 C    (  0  0  0)     2.670     1.413    -0.000
                409 C    (  0  0  0)     2.764     1.463     0.000
                625 H    (  0  0  0)     4.085     2.162    -0.000
                601 C    (  0  0  0)     4.337     2.295     0.000
                 49 C    (  0  0  0)     4.461     2.361    -0.000

 ATOM A 481 C    ATOM B     CELL      R(AB)/AU R(AB)/ANG    OVPOP(AB)
                649 H    (  0  0  0)     2.053     1.087     0.000
                121 C    (  0  0  0)     2.574     1.362    -0.000
                409 C    (  0  0  0)     2.670     1.413     0.000
                313 N    (  0  0  0)     4.519     2.391    -0.000
                 49 C    (  0  0  0)     4.616     2.443    -0.000
                337 O    (  0  0  0)     4.635     2.453    -0.000

 ATOM A 505 O    ATOM B     CELL      R(AB)/AU R(AB)/ANG    OVPOP(AB)
                 49 C    (  0  0  0)     2.572     1.361     0.000
                289 B    (  0  0  0)     2.641     1.397     0.000
                121 C    (  0  0  0)     4.268     2.259     0.000
                337 O    (  0  0  0)     4.328     2.290     0.000
                 97 C    (  0  0  0)     4.633     2.452     0.000
                169 C    (  0  0  0)     4.887     2.586    -0.000

 ATOM A 529 H    ATOM B     CELL      R(AB)/AU R(AB)/ANG    OVPOP(AB)
                145 C    (  0  0  0)     2.059     1.089     0.000
                385 C    (  0  0  0)     4.063     2.150    -0.000
                169 C    (  0  0  0)     4.067     2.152    -0.000
                265 H    (  0  0  0)     4.670     2.471    -0.000
                337 O    (  0  0  0)     5.109     2.704    -0.000
                289 B    (  0  0  0)     5.176     2.739    -0.000

 ATOM A 553 N    ATOM B     CELL      R(AB)/AU R(AB)/ANG    OVPOP(AB)
                601 C    (  0  0  0)     2.524     1.336    -0.000
                457 C    (  0  0  0)     2.572     1.361    -0.000
                  6 NI   (  0  0  0)     3.747     1.983    -0.000
                582 C    (  0  0  0)     4.469     2.365    -0.000
                 97 C    (  0  0  0)     4.518     2.391    -0.000
                577 C    (  0  0  0)     4.534     2.399     0.000

 ATOM A 577 C    ATOM B     CELL      R(AB)/AU R(AB)/ANG    OVPOP(AB)
                313 N    (  0  0  0)     2.524     1.336    -0.000
                601 C    (  0  0  0)     2.644     1.399    -0.000
                605 C    (  0  0  0)     2.708     1.433     0.000
                409 C    (  0  0  0)     4.337     2.295    -0.000
                557 N    (  0  0  0)     4.469     2.365    -0.000
                553 N    (  0  0  0)     4.534     2.399     0.000

 ATOM A 601 C    ATOM B     CELL      R(AB)/AU R(AB)/ANG    OVPOP(AB)
                553 N    (  0  0  0)     2.524     1.336    -0.000
                577 C    (  0  0  0)     2.644     1.399    -0.000
                582 C    (  0  0  0)     2.708     1.433     0.000
                457 C    (  0  0  0)     4.337     2.295     0.000
                318 N    (  0  0  0)     4.470     2.365    -0.000
                313 N    (  0  0  0)     4.534     2.399     0.000

 ATOM A 625 H    ATOM B     CELL      R(AB)/AU R(AB)/ANG    OVPOP(AB)
                 97 C    (  0  0  0)     2.053     1.086     0.000
                457 C    (  0  0  0)     4.085     2.162    -0.000
                 49 C    (  0  0  0)     4.097     2.168    -0.000
                222 CL   (  0  0  0)     4.493     2.377    -0.000
                553 N    (  0  0  0)     4.942     2.615    -0.000
                505 O    (  0  0  0)     5.336     2.824    -0.000

 ATOM A 649 H    ATOM B     CELL      R(AB)/AU R(AB)/ANG    OVPOP(AB)
                481 C    (  0  0  0)     2.053     1.087     0.000
                409 C    (  0  0  0)     4.084     2.161    -0.000
                121 C    (  0  0  0)     4.098     2.169     0.000
                 25 CL   (  0  0  0)     4.472     2.367    -0.000
                313 N    (  0  0  0)     4.941     2.615     0.000
                337 O    (  0  0  0)     5.340     2.826     0.000

 ATOM A 673 C    ATOM B     CELL      R(AB)/AU R(AB)/ANG    OVPOP(AB)
                368 C    (  0  0  0)     2.897     1.533     0.000
                200 C    (  0  0  0)     4.758     2.518     0.000
                392 C    (  0  0  0)     4.876     2.580     0.000
                440 H    (  0  0  0)     5.060     2.677    -0.000
                272 H    (  0  0  0)     5.291     2.800    -0.000
                248 C    (  0  0  0)     7.195     3.807     0.000
 EIGENVECTORS IN FORTRAN UNIT 10
 TTTTTTTTTTTTTTTTTTTTTTTTTTTTTT END         TELAPSE      858.40 TCPU      850.74
 MMMMM END         USED MEM(MB)    108.38 MAX MEM    404.22 TOT MEM      2601.03
 EEEEEEEEEE TERMINATION  DATE 28 04 2025 TIME 16:52:20.1
NODE    0 CPU TIME =       850.743
NODE    1 CPU TIME =       851.307
NODE    2 CPU TIME =       851.334
NODE    3 CPU TIME =       850.965
NODE    4 CPU TIME =       851.226
NODE    5 CPU TIME =       851.267
NODE    6 CPU TIME =       851.921
NODE    7 CPU TIME =       851.884
NODE    8 CPU TIME =       850.333
NODE    9 CPU TIME =       850.944
NODE   10 CPU TIME =       851.166
NODE   11 CPU TIME =       851.350
NODE   12 CPU TIME =       851.634
NODE   13 CPU TIME =       851.281
NODE   14 CPU TIME =       848.268
NODE   15 CPU TIME =       851.892
NODE   16 CPU TIME =       850.814
NODE   17 CPU TIME =       849.018
NODE   18 CPU TIME =       851.095
NODE   19 CPU TIME =       848.668
NODE   20 CPU TIME =       851.486
NODE   21 CPU TIME =       850.785
NODE   22 CPU TIME =       848.119
NODE   23 CPU TIME =       851.669
    TOTAL CPU TIME =     20419.172
