 PROCESS           13  OF           24  WORKING
 PROCESS            2  OF           24  WORKING
 PROCESS            5  OF           24  WORKING
 PROCESS           11  OF           24  WORKING
 PROCESS           23  OF           24  WORKING
 PROCESS            3  OF           24  WORKING
 PROCESS            6  OF           24  WORKING
 PROCESS           16  OF           24  WORKING
 PROCESS           18  OF           24  WORKING
 PROCESS           19  OF           24  WORKING
 PROCESS            4  OF           24  WORKING
 PROCESS           22  OF           24  WORKING
 PROCESS            0  OF           24  WORKING
 PROCESS           12  OF           24  WORKING
 PROCESS           17  OF           24  WORKING
 PROCESS           21  OF           24  WORKING
 PROCESS            1  OF           24  WORKING
 PROCESS           20  OF           24  WORKING
 PROCESS           14  OF           24  WORKING
 PROCESS            7  OF           24  WORKING
 PROCESS           15  OF           24  WORKING

 PROCESS           10  OF           24  WORKING
         
 *******************************************************************************
 *                                                                             *
 *                               CRYSTAL23                                     *
 *                      public : 1.0.1 - October 2022                          *
 *                       HTTP://WWW.CRYSTAL.UNITO.IT                           *
 *                                                                             *
 *                              MAIN AUTHORS                                   *
 *                                                                             *
 *  R. DOVESI(1,11), V.R. SAUNDERS(2), C. ROETTI(1,11), R. ORLANDO(1,11),      *
 *  C.M. ZICOVICH-WILSON(1,3), F. PASCALE(4), B. CIVALLERI(1,11),              *
 PROCESS            9  OF           24  WORKING
 *  K. DOLL(5), N.M. HARRISON(6), I.J. BUSH(7), Ph. D'ARCO(8),                 *
 *  M. LLUNELL(9), M. CAUSA'(10), Y. NOEL(8), L. MASCHIO(1,11), A. ERBA(1,11)  *
 *  M. RE'RAT(14), S. CASASSA(1,11), B.G. SEARLE(2), J.K. DESMARAIS(1)         *
 *                                                                             *
 *        CONTRIBUTIONS TO THE CODE HAVE ALSO BEEN GIVEN BY                    *
 *                                                                             *
 PROCESS            8  OF           24  WORKING
 *  M. FERRABONE(1,11), M. DE LA PIERRE(1,11), M. FERRERO(1,11),               *
 *  J. BAIMA(1,11), E. ALBANESE(1,11), M.F. PEINTINGER(12), R. BAST(13),       *
 *  B. KIRTMAN(15), V. LACIVITA(1,11), R. DEMICHELIS(1,16)                     *
 *  G. BRANDEBURG(17), S. SALUSTRO(1,11), G. SANSONE(1,11)                     *
 *  M.T. RUGGIERO(18), L.E. DAGA(1), L. DONA'(1), A. COSSARD(1)                *
 *                                                                             *
 * (1) THEORETICAL CHEMISTRY GROUP - UNIVERSITA' DI TORINO - TORINO (ITALY)    *
 * (2) SCIENTIFIC COMPUTING DEPARTMENT - STFC DARESBURY (UK)                   *
 * (3) UNIVERSIDAD AUTONOMA DEL ESTADO DE MORELOS - CUERNAVACA (MEXICO)        *
 * (4) UNIVERSITE' DE LORRAINE - NANCY (FRANCE)                                *
 * (5) UNIVERSITAET STUTTGART- STUTTGART (GERMANY)                             *
 * (6) IMPERIAL COLLEGE - LONDON (UK)                                          *
 * (7) SCIENTIFIC COMPUTING DEPARTMENT - STFC RAL (UK)                         *
 * (8) UPMC - SORBONNE UNIVERSITES - PARIS (FRANCE)                            *
 * (9) UNIVERSIDAD DE BARCELONA - BARCELONA (SPAIN)                            *
 *(10) UNIVERSITA' DI NAPOLI "FEDERICO II" - NAPOLI (ITALY)                    *
 *(11) NIS - NANOSTRUCTURED INTERFACES AND SURFACES - TORINO (ITALY)           *
 *(12) MPI FUER CHEMISCHE ENERGIEKONVERSION - MUELHEIM AN DER RUHR (GERMANY)   *
 *(13) UNIVERSITY OF TROMSO - TROMSO (NORWAY)                                  *
 *(14) UNIVERSITE' DE PAU ET DES PAYS DE L'ADOUR - PAU (FRANCE)                *
 *(15) UNIVERSITY OF CALIFORNIA SANTA BARBARA - SANTA BARBARA (USA)            *
 *(16) CURTIN UNIVERSITY - PERTH (AUSTRALIA)                                   *
 *(17) UNIVERSITY COLLEGE LONDON - LONDON (UK)                                 *
 *(18) UNIVERSITY OF VERMONT - BURLINGTON (USA)                                *
 *                                                                             *
 *******************************************************************************
 EEEEEEEEEE STARTING  DATE 28 04 2025 TIME 16:38:03.3
 PandaCOF102_sym                                                                 

 CRYSTAL CALCULATION
 (INPUT ACCORDING TO THE INTERNATIONAL TABLES FOR X-RAY CRYSTALLOGRAPHY)
 CRYSTAL FAMILY                       :  CUBIC       
 CRYSTAL CLASS  (GROTH - 1921)        :  CUBIC HEXAKISTETRAHEDRAL             

 SPACE GROUP (NONCENTROSYMMETRIC)     :  I -4 3 D        

 LATTICE PARAMETERS  (ANGSTROMS AND DEGREES) - CONVENTIONAL CELL
        A           B           C        ALPHA        BETA       GAMMA
    42.32982    42.32982    42.32982    90.00000    90.00000    90.00000


 NUMBER OF IRREDUCIBLE ATOMS IN THE CONVENTIONAL CELL:   20

 INPUT COORDINATES

 ATOM AT. N.              COORDINATES
   1   8     1.150941695976E-01  2.477286235272E-01  2.643374517728E-01
   2   7     1.746481851883E-01  1.903675344860E-01  2.621757283943E-01
   3   6     1.414639510382E-01  2.347505537658E-01  2.510728645003E-01
   4   6     2.184948765584E-01  1.820039503955E-01  2.269591919747E-01
   5   8     2.038534622664E-01  2.931059705832E-01  1.297552641678E-01
   6   7     1.563325800025E-01  2.447906263702E-01  2.263260393846E-01
   7   6     2.687280035852E-01  1.504704512151E-01  2.078838901848E-01
   8   5     2.285038443708E-01  2.902374920155E-01  1.079487115279E-01
   9   6     1.910741220990E-01  2.001125399046E-01  2.362237712095E-01
  10   1     1.924116891964E-01  3.404892342124E-01  8.928117394627E-02
  11   6     2.127260121921E-01  3.371078313269E-01  7.384156866514E-02
  12   6     2.593062537145E-01  3.080457433740E-01  5.940798908995E-02
  13   6     2.637046662318E-01  3.279702888437E-01  3.381317949910E-02
  14   6     2.430878334049E-01  3.533483202149E-01  2.821051812615E-02
  15   1     2.004799384458E-01  3.762690691762E-01  4.386544987822E-02
  16   1     2.830143623114E-01  3.238292114234E-01  1.728417528985E-02
  17   6     2.336854053298E-01  3.123422280911E-01  7.998753579937E-02
  18   6     2.173017978948E-01  3.573548382826E-01  4.833340285709E-02
  19   1     2.756164903059E-01  2.885565555027E-01  6.347858714764E-02
  20   6     1.250000000000E-01  0.000000000000E+00 -2.500000000000E-01

 *******************************************************************************

 << INFORMATION >>: FROM NOW ON, ALL COORDINATES REFER TO THE PRIMITIVE CELL

 *******************************************************************************

 LATTICE PARAMETERS  (ANGSTROMS AND DEGREES) - PRIMITIVE CELL
       A          B          C        ALPHA      BETA     GAMMA        VOLUME
   36.65870   36.65870   36.65870   109.47122 109.47122 109.47122  37923.587617

 COORDINATES OF THE EQUIVALENT ATOMS (FRACTIONAL UNITS)

 N. ATOM EQUIV AT. N.          X                  Y                  Z

   1   1   1    8 O    -4.87933924700E-01  3.79431621370E-01  3.62822793125E-01
   2   1   2    8 O    -4.83391171754E-01  1.49243282175E-01  1.37177206875E-01
   3   1   3    8 O    -1.20660753000E-02  3.50756717825E-01 -1.32634453930E-01
   4   1   4    8 O    -1.66088282456E-02  1.20568378630E-01 -3.67365546070E-01
   5   1   5    8 O     3.62822793125E-01 -4.87933924700E-01  3.79431621370E-01
   6   1   6    8 O     3.79431621370E-01  3.62822793125E-01 -4.87933924700E-01
   7   1   7    8 O    -3.67365546070E-01 -1.66088282456E-02  1.20568378630E-01
   8   1   8    8 O     1.49243282175E-01  1.37177206875E-01 -4.83391171754E-01
   9   1   9    8 O     1.37177206875E-01 -4.83391171754E-01  1.49243282175E-01
  10   1  10    8 O     3.50756717825E-01 -1.32634453930E-01 -1.20660753000E-02
  11   1  11    8 O    -1.32634453930E-01 -1.20660753000E-02  3.50756717825E-01
  12   1  12    8 O     1.20568378630E-01 -3.67365546070E-01 -1.66088282456E-02
  13   1  13    8 O    -1.20568378630E-01  1.20660753000E-02 -1.37177206875E-01
  14   1  14    8 O    -3.50756717825E-01  1.66088282456E-02 -3.62822793125E-01
  15   1  15    8 O    -1.49243282175E-01  4.87933924700E-01  3.67365546070E-01
  16   1  16    8 O    -3.79431621370E-01  4.83391171754E-01  1.32634453930E-01
  17   1  17    8 O     1.20660753000E-02 -1.37177206875E-01 -1.20568378630E-01
  18   1  18    8 O    -1.37177206875E-01 -1.20568378630E-01  1.20660753000E-02
  19   1  19    8 O     4.83391171754E-01  1.32634453930E-01 -3.79431621370E-01
  20   1  20    8 O    -3.62822793125E-01 -3.50756717825E-01  1.66088282456E-02
  21   1  21    8 O     1.66088282456E-02 -3.62822793125E-01 -3.50756717825E-01
  22   1  22    8 O     3.67365546070E-01 -1.49243282175E-01  4.87933924700E-01
  23   1  23    8 O     4.87933924700E-01  3.67365546070E-01 -1.49243282175E-01
  24   1  24    8 O     1.32634453930E-01 -3.79431621370E-01  4.83391171754E-01

  25   2   1    7 N     4.52543262880E-01  4.36823913583E-01  3.65015719674E-01
  26   2   2    7 N    -4.28191806092E-01  8.75275432060E-02  1.34984280326E-01
  27   2   3    7 N     4.74567371197E-02  4.12472456794E-01 -1.57193492977E-02
  28   2   4    7 N    -7.18081939083E-02  6.31760864174E-02 -4.84280650702E-01
  29   2   5    7 N     3.65015719674E-01  4.52543262880E-01  4.36823913583E-01
  30   2   6    7 N     4.36823913583E-01  3.65015719674E-01  4.52543262880E-01
  31   2   7    7 N    -4.84280650702E-01 -7.18081939083E-02  6.31760864174E-02
  32   2   8    7 N     8.75275432060E-02  1.34984280326E-01 -4.28191806092E-01
  33   2   9    7 N     1.34984280326E-01 -4.28191806092E-01  8.75275432060E-02
  34   2  10    7 N     4.12472456794E-01 -1.57193492977E-02  4.74567371197E-02
  35   2  11    7 N    -1.57193492977E-02  4.74567371197E-02  4.12472456794E-01
  36   2  12    7 N     6.31760864174E-02 -4.84280650702E-01 -7.18081939083E-02
  37   2  13    7 N    -6.31760864174E-02 -4.74567371197E-02 -1.34984280326E-01
  38   2  14    7 N    -4.12472456794E-01  7.18081939083E-02 -3.65015719674E-01
  39   2  15    7 N    -8.75275432060E-02 -4.52543262880E-01  4.84280650702E-01
  40   2  16    7 N    -4.36823913583E-01  4.28191806092E-01  1.57193492977E-02
  41   2  17    7 N    -4.74567371197E-02 -1.34984280326E-01 -6.31760864174E-02
  42   2  18    7 N    -1.34984280326E-01 -6.31760864174E-02 -4.74567371197E-02
  43   2  19    7 N     4.28191806092E-01  1.57193492977E-02 -4.36823913583E-01
  44   2  20    7 N    -3.65015719674E-01 -4.12472456794E-01  7.18081939083E-02
  45   2  21    7 N     7.18081939083E-02 -3.65015719674E-01 -4.12472456794E-01
  46   2  22    7 N     4.84280650702E-01 -8.75275432060E-02 -4.52543262880E-01
  47   2  23    7 N    -4.52543262880E-01  4.84280650702E-01 -8.75275432060E-02
  48   2  24    7 N     1.57193492977E-02 -4.36823913583E-01  4.28191806092E-01

  49   3   1    6 C     4.85823418266E-01  3.92536815538E-01  3.76214504804E-01
  50   3   2    6 C    -4.83677689266E-01  1.09608913462E-01  1.23785495196E-01
  51   3   3    6 C     1.41765817339E-02  3.90391086538E-01 -9.32866027276E-02
  52   3   4    6 C    -1.63223107345E-02  1.07463184462E-01 -4.06713397272E-01
  53   3   5    6 C     3.76214504804E-01  4.85823418266E-01  3.92536815538E-01
  54   3   6    6 C     3.92536815538E-01  3.76214504804E-01  4.85823418266E-01
  55   3   7    6 C    -4.06713397272E-01 -1.63223107345E-02  1.07463184462E-01
  56   3   8    6 C     1.09608913462E-01  1.23785495196E-01 -4.83677689266E-01
  57   3   9    6 C     1.23785495196E-01 -4.83677689266E-01  1.09608913462E-01
  58   3  10    6 C     3.90391086538E-01 -9.32866027276E-02  1.41765817339E-02
  59   3  11    6 C    -9.32866027276E-02  1.41765817339E-02  3.90391086538E-01
  60   3  12    6 C     1.07463184462E-01 -4.06713397272E-01 -1.63223107345E-02
  61   3  13    6 C    -1.07463184462E-01 -1.41765817339E-02 -1.23785495196E-01
  62   3  14    6 C    -3.90391086538E-01  1.63223107345E-02 -3.76214504804E-01
  63   3  15    6 C    -1.09608913462E-01 -4.85823418266E-01  4.06713397272E-01
  64   3  16    6 C    -3.92536815538E-01  4.83677689266E-01  9.32866027276E-02
  65   3  17    6 C    -1.41765817339E-02 -1.23785495196E-01 -1.07463184462E-01
  66   3  18    6 C    -1.23785495196E-01 -1.07463184462E-01 -1.41765817339E-02
  67   3  19    6 C     4.83677689266E-01  9.32866027276E-02 -3.92536815538E-01
  68   3  20    6 C    -3.76214504804E-01 -3.90391086538E-01  1.63223107345E-02
  69   3  21    6 C     1.63223107345E-02 -3.76214504804E-01 -3.90391086538E-01
  70   3  22    6 C     4.06713397272E-01 -1.09608913462E-01 -4.85823418266E-01
  71   3  23    6 C    -4.85823418266E-01  4.06713397272E-01 -1.09608913462E-01
  72   3  24    6 C     9.32866027276E-02 -3.92536815538E-01  4.83677689266E-01

  73   4   1    6 C     4.08963142370E-01  4.45454068533E-01  4.00498826954E-01
  74   4   2    6 C    -4.55044758421E-01  8.46431541630E-03  9.95011730461E-02
  75   4   3    6 C     9.10368576298E-02  4.91535684584E-01  3.64909261629E-02
  76   4   4    6 C    -4.49552415792E-02  5.45459314669E-02  4.63509073837E-01
  77   4   5    6 C     4.00498826954E-01  4.08963142370E-01  4.45454068533E-01
  78   4   6    6 C     4.45454068533E-01  4.00498826954E-01  4.08963142370E-01
  79   4   7    6 C     4.63509073837E-01 -4.49552415792E-02  5.45459314669E-02
  80   4   8    6 C     8.46431541630E-03  9.95011730461E-02 -4.55044758421E-01
  81   4   9    6 C     9.95011730461E-02 -4.55044758421E-01  8.46431541630E-03
  82   4  10    6 C     4.91535684584E-01  3.64909261629E-02  9.10368576298E-02
  83   4  11    6 C     3.64909261629E-02  9.10368576298E-02  4.91535684584E-01
  84   4  12    6 C     5.45459314669E-02  4.63509073837E-01 -4.49552415792E-02
  85   4  13    6 C    -5.45459314669E-02 -9.10368576298E-02 -9.95011730461E-02
  86   4  14    6 C    -4.91535684584E-01  4.49552415792E-02 -4.00498826954E-01
  87   4  15    6 C    -8.46431541630E-03 -4.08963142370E-01 -4.63509073837E-01
  88   4  16    6 C    -4.45454068533E-01  4.55044758421E-01 -3.64909261629E-02
  89   4  17    6 C    -9.10368576298E-02 -9.95011730461E-02 -5.45459314669E-02
  90   4  18    6 C    -9.95011730461E-02 -5.45459314669E-02 -9.10368576298E-02
  91   4  19    6 C     4.55044758421E-01 -3.64909261629E-02 -4.45454068533E-01
  92   4  20    6 C    -4.00498826954E-01 -4.91535684584E-01  4.49552415792E-02
  93   4  21    6 C     4.49552415792E-02 -4.00498826954E-01 -4.91535684584E-01
  94   4  22    6 C    -4.63509073837E-01 -8.46431541630E-03 -4.08963142370E-01
  95   4  23    6 C    -4.08963142370E-01 -4.63509073837E-01 -8.46431541630E-03
  96   4  24    6 C    -3.64909261629E-02 -4.45454068533E-01  4.55044758421E-01

  97   5   1    8 O     4.22861234751E-01  3.33608726434E-01  4.96959432850E-01
  98   5   2    8 O     3.36649293585E-01 -7.40981980986E-02  3.04056715040E-03
  99   5   3    8 O     7.71387652490E-02 -4.25901801901E-01 -8.92525083168E-02
 100   5   4    8 O     1.63350706415E-01  1.66391273566E-01 -4.10747491683E-01
 101   5   5    8 O     4.96959432850E-01  4.22861234751E-01  3.33608726434E-01
 102   5   6    8 O     3.33608726434E-01  4.96959432850E-01  4.22861234751E-01
 103   5   7    8 O    -4.10747491683E-01  1.63350706415E-01  1.66391273566E-01
 104   5   8    8 O    -7.40981980986E-02  3.04056715040E-03  3.36649293585E-01
 105   5   9    8 O     3.04056715040E-03  3.36649293585E-01 -7.40981980986E-02
 106   5  10    8 O    -4.25901801901E-01 -8.92525083168E-02  7.71387652490E-02
 107   5  11    8 O    -8.92525083168E-02  7.71387652490E-02 -4.25901801901E-01
 108   5  12    8 O     1.66391273566E-01 -4.10747491683E-01  1.63350706415E-01
 109   5  13    8 O    -1.66391273566E-01 -7.71387652490E-02 -3.04056715040E-03
 110   5  14    8 O     4.25901801901E-01 -1.63350706415E-01 -4.96959432850E-01
 111   5  15    8 O     7.40981980986E-02 -4.22861234751E-01  4.10747491683E-01
 112   5  16    8 O    -3.33608726434E-01 -3.36649293585E-01  8.92525083168E-02
 113   5  17    8 O    -7.71387652490E-02 -3.04056715040E-03 -1.66391273566E-01
 114   5  18    8 O    -3.04056715040E-03 -1.66391273566E-01 -7.71387652490E-02
 115   5  19    8 O    -3.36649293585E-01  8.92525083168E-02 -3.33608726434E-01
 116   5  20    8 O    -4.96959432850E-01  4.25901801901E-01 -1.63350706415E-01
 117   5  21    8 O    -1.63350706415E-01 -4.96959432850E-01  4.25901801901E-01
 118   5  22    8 O     4.10747491683E-01  7.40981980986E-02 -4.22861234751E-01
 119   5  23    8 O    -4.22861234751E-01  4.10747491683E-01  7.40981980986E-02
 120   5  24    8 O     8.92525083168E-02 -3.33608726434E-01 -3.36649293585E-01

 121   6   1    7 N     4.71116665755E-01  3.82658619387E-01  4.01123206373E-01
 122   6   2    7 N     4.81535413014E-01  6.99934593821E-02  9.88767936273E-02
 123   6   3    7 N     2.88833342452E-02  4.30006540618E-01 -8.84580463677E-02
 124   6   4    7 N     1.84645869856E-02  1.17341380613E-01 -4.11541953632E-01
 125   6   5    7 N     4.01123206373E-01  4.71116665755E-01  3.82658619387E-01
 126   6   6    7 N     3.82658619387E-01  4.01123206373E-01  4.71116665755E-01
 127   6   7    7 N    -4.11541953632E-01  1.84645869856E-02  1.17341380613E-01
 128   6   8    7 N     6.99934593821E-02  9.88767936273E-02  4.81535413014E-01
 129   6   9    7 N     9.88767936273E-02  4.81535413014E-01  6.99934593821E-02
 130   6  10    7 N     4.30006540618E-01 -8.84580463677E-02  2.88833342452E-02
 131   6  11    7 N    -8.84580463677E-02  2.88833342452E-02  4.30006540618E-01
 132   6  12    7 N     1.17341380613E-01 -4.11541953632E-01  1.84645869856E-02
 133   6  13    7 N    -1.17341380613E-01 -2.88833342452E-02 -9.88767936273E-02
 134   6  14    7 N    -4.30006540618E-01 -1.84645869856E-02 -4.01123206373E-01
 135   6  15    7 N    -6.99934593821E-02 -4.71116665755E-01  4.11541953632E-01
 136   6  16    7 N    -3.82658619387E-01 -4.81535413014E-01  8.84580463677E-02
 137   6  17    7 N    -2.88833342452E-02 -9.88767936273E-02 -1.17341380613E-01
 138   6  18    7 N    -9.88767936273E-02 -1.17341380613E-01 -2.88833342452E-02
 139   6  19    7 N    -4.81535413014E-01  8.84580463677E-02 -3.82658619387E-01
 140   6  20    7 N    -4.01123206373E-01 -4.30006540618E-01 -1.84645869856E-02
 141   6  21    7 N    -1.84645869856E-02 -4.01123206373E-01 -4.30006540618E-01
 142   6  22    7 N     4.11541953632E-01 -6.99934593821E-02 -4.71116665755E-01
 143   6  23    7 N    -4.71116665755E-01  4.11541953632E-01 -6.99934593821E-02
 144   6  24    7 N     8.84580463677E-02 -3.82658619387E-01 -4.81535413014E-01

 145   7   1    6 C     3.58354341400E-01  4.76611893770E-01  4.19198454800E-01
 146   7   2    6 C    -4.42586561030E-01 -6.08441134004E-02  8.08015451997E-02
 147   7   3    6 C     1.41645658600E-01 -4.39155886600E-01  1.18257552370E-01
 148   7   4    6 C    -5.74134389697E-02  2.33881062300E-02  3.81742447630E-01
 149   7   5    6 C     4.19198454800E-01  3.58354341400E-01  4.76611893770E-01
 150   7   6    6 C     4.76611893770E-01  4.19198454800E-01  3.58354341400E-01
 151   7   7    6 C     3.81742447630E-01 -5.74134389697E-02  2.33881062300E-02
 152   7   8    6 C    -6.08441134004E-02  8.08015451997E-02 -4.42586561030E-01
 153   7   9    6 C     8.08015451997E-02 -4.42586561030E-01 -6.08441134004E-02
 154   7  10    6 C    -4.39155886600E-01  1.18257552370E-01  1.41645658600E-01
 155   7  11    6 C     1.18257552370E-01  1.41645658600E-01 -4.39155886600E-01
 156   7  12    6 C     2.33881062300E-02  3.81742447630E-01 -5.74134389697E-02
 157   7  13    6 C    -2.33881062300E-02 -1.41645658600E-01 -8.08015451997E-02
 158   7  14    6 C     4.39155886600E-01  5.74134389697E-02 -4.19198454800E-01
 159   7  15    6 C     6.08441134004E-02 -3.58354341400E-01 -3.81742447630E-01
 160   7  16    6 C    -4.76611893770E-01  4.42586561030E-01 -1.18257552370E-01
 161   7  17    6 C    -1.41645658600E-01 -8.08015451997E-02 -2.33881062300E-02
 162   7  18    6 C    -8.08015451997E-02 -2.33881062300E-02 -1.41645658600E-01
 163   7  19    6 C     4.42586561030E-01 -1.18257552370E-01 -4.76611893770E-01
 164   7  20    6 C    -4.19198454800E-01  4.39155886600E-01  5.74134389697E-02
 165   7  21    6 C     5.74134389697E-02 -4.19198454800E-01  4.39155886600E-01
 166   7  22    6 C    -3.81742447630E-01  6.08441134004E-02 -3.58354341400E-01
 167   7  23    6 C    -3.58354341400E-01 -3.81742447630E-01  6.08441134004E-02
 168   7  24    6 C    -1.18257552370E-01 -4.76611893770E-01  4.42586561030E-01

 169   8   1    5 B     3.98186203543E-01  3.36452555899E-01 -4.81258663614E-01
 170   8   2    5 B     3.17711219512E-01 -1.20555132843E-01 -1.87413363863E-02
 171   8   3    5 B     1.01813796457E-01 -3.79444867157E-01 -6.17336476447E-02
 172   8   4    5 B     1.82288780488E-01  1.63547444101E-01 -4.38266352355E-01
 173   8   5    5 B    -4.81258663614E-01  3.98186203543E-01  3.36452555899E-01
 174   8   6    5 B     3.36452555899E-01 -4.81258663614E-01  3.98186203543E-01
 175   8   7    5 B    -4.38266352355E-01  1.82288780488E-01  1.63547444101E-01
 176   8   8    5 B    -1.20555132843E-01 -1.87413363863E-02  3.17711219512E-01
 177   8   9    5 B    -1.87413363863E-02  3.17711219512E-01 -1.20555132843E-01
 178   8  10    5 B    -3.79444867157E-01 -6.17336476447E-02  1.01813796457E-01
 179   8  11    5 B    -6.17336476447E-02  1.01813796457E-01 -3.79444867157E-01
 180   8  12    5 B     1.63547444101E-01 -4.38266352355E-01  1.82288780488E-01
 181   8  13    5 B    -1.63547444101E-01 -1.01813796457E-01  1.87413363863E-02
 182   8  14    5 B     3.79444867157E-01 -1.82288780488E-01  4.81258663614E-01
 183   8  15    5 B     1.20555132843E-01 -3.98186203543E-01  4.38266352355E-01
 184   8  16    5 B    -3.36452555899E-01 -3.17711219512E-01  6.17336476447E-02
 185   8  17    5 B    -1.01813796457E-01  1.87413363863E-02 -1.63547444101E-01
 186   8  18    5 B     1.87413363863E-02 -1.63547444101E-01 -1.01813796457E-01
 187   8  19    5 B    -3.17711219512E-01  6.17336476447E-02 -3.36452555899E-01
 188   8  20    5 B     4.81258663614E-01  3.79444867157E-01 -1.82288780488E-01
 189   8  21    5 B    -1.82288780488E-01  4.81258663614E-01  3.79444867157E-01
 190   8  22    5 B     4.38266352355E-01  1.20555132843E-01 -3.98186203543E-01
 191   8  23    5 B    -3.98186203543E-01  4.38266352355E-01  1.20555132843E-01
 192   8  24    5 B     6.17336476447E-02 -3.36452555899E-01 -3.17711219512E-01

 193   9   1    6 C     4.36336311114E-01  4.27297893308E-01  3.91186662004E-01
 194   9   2    6 C    -4.63888768695E-01  4.51496491105E-02  1.08813337996E-01
 195   9   3    6 C     6.36636888859E-02  4.54850350889E-01 -9.03841780560E-03
 196   9   4    6 C    -3.61112313049E-02  7.27021066915E-02 -4.90961582194E-01
 197   9   5    6 C     3.91186662004E-01  4.36336311114E-01  4.27297893308E-01
 198   9   6    6 C     4.27297893308E-01  3.91186662004E-01  4.36336311114E-01
 199   9   7    6 C    -4.90961582194E-01 -3.61112313049E-02  7.27021066915E-02
 200   9   8    6 C     4.51496491105E-02  1.08813337996E-01 -4.63888768695E-01
 201   9   9    6 C     1.08813337996E-01 -4.63888768695E-01  4.51496491105E-02
 202   9  10    6 C     4.54850350889E-01 -9.03841780560E-03  6.36636888859E-02
 203   9  11    6 C    -9.03841780560E-03  6.36636888859E-02  4.54850350889E-01
 204   9  12    6 C     7.27021066915E-02 -4.90961582194E-01 -3.61112313049E-02
 205   9  13    6 C    -7.27021066915E-02 -6.36636888859E-02 -1.08813337996E-01
 206   9  14    6 C    -4.54850350889E-01  3.61112313049E-02 -3.91186662004E-01
 207   9  15    6 C    -4.51496491105E-02 -4.36336311114E-01  4.90961582194E-01
 208   9  16    6 C    -4.27297893308E-01  4.63888768695E-01  9.03841780560E-03
 209   9  17    6 C    -6.36636888859E-02 -1.08813337996E-01 -7.27021066915E-02
 210   9  18    6 C    -1.08813337996E-01 -7.27021066915E-02 -6.36636888859E-02
 211   9  19    6 C     4.63888768695E-01  9.03841780560E-03 -4.27297893308E-01
 212   9  20    6 C    -3.91186662004E-01 -4.54850350889E-01  3.61112313049E-02
 213   9  21    6 C     3.61112313049E-02 -3.91186662004E-01 -4.54850350889E-01
 214   9  22    6 C     4.90961582194E-01 -4.51496491105E-02 -4.36336311114E-01
 215   9  23    6 C    -4.36336311114E-01  4.90961582194E-01 -4.51496491105E-02
 216   9  24    6 C     9.03841780560E-03 -4.27297893308E-01  4.63888768695E-01

 217  10   1    1 H     4.29770408159E-01  2.81692863143E-01 -4.67099076591E-01
 218  10   2    1 H     2.48791939734E-01 -1.03130515250E-01 -3.29009234088E-02
 219  10   3    1 H     7.02295918413E-02 -3.96869484750E-01 -1.48077545016E-01
 220  10   4    1 H     2.51208060266E-01  2.18307136857E-01 -3.51922454984E-01
 221  10   5    1 H    -4.67099076591E-01  4.29770408159E-01  2.81692863143E-01
 222  10   6    1 H     2.81692863143E-01 -4.67099076591E-01  4.29770408159E-01
 223  10   7    1 H    -3.51922454984E-01  2.51208060266E-01  2.18307136857E-01
 224  10   8    1 H    -1.03130515250E-01 -3.29009234088E-02  2.48791939734E-01
 225  10   9    1 H    -3.29009234088E-02  2.48791939734E-01 -1.03130515250E-01
 226  10  10    1 H    -3.96869484750E-01 -1.48077545016E-01  7.02295918413E-02
 227  10  11    1 H    -1.48077545016E-01  7.02295918413E-02 -3.96869484750E-01
 228  10  12    1 H     2.18307136857E-01 -3.51922454984E-01  2.51208060266E-01
 229  10  13    1 H    -2.18307136857E-01 -7.02295918413E-02  3.29009234088E-02
 230  10  14    1 H     3.96869484750E-01 -2.51208060266E-01  4.67099076591E-01
 231  10  15    1 H     1.03130515250E-01 -4.29770408159E-01  3.51922454984E-01
 232  10  16    1 H    -2.81692863143E-01 -2.48791939734E-01  1.48077545016E-01
 233  10  17    1 H    -7.02295918413E-02  3.29009234088E-02 -2.18307136857E-01
 234  10  18    1 H     3.29009234088E-02 -2.18307136857E-01 -7.02295918413E-02
 235  10  19    1 H    -2.48791939734E-01  1.48077545016E-01 -2.81692863143E-01
 236  10  20    1 H     4.67099076591E-01  3.96869484750E-01 -2.51208060266E-01
 237  10  21    1 H    -2.51208060266E-01  4.67099076591E-01  3.96869484750E-01
 238  10  22    1 H     3.51922454984E-01  1.03130515250E-01 -4.29770408159E-01
 239  10  23    1 H    -4.29770408159E-01  3.51922454984E-01  1.03130515250E-01
 240  10  24    1 H     1.48077545016E-01 -2.81692863143E-01 -2.48791939734E-01

 241  11   1    6 C     4.10949399992E-01  2.86567580857E-01 -4.50166156481E-01
 242  11   2    6 C     2.36733737338E-01 -1.38884443527E-01 -4.98338435190E-02
 243  11   3    6 C     8.90506000080E-02 -3.61115556473E-01 -1.24381819135E-01
 244  11   4    6 C     2.63266262662E-01  2.13432419143E-01 -3.75618180865E-01
 245  11   5    6 C    -4.50166156481E-01  4.10949399992E-01  2.86567580857E-01
 246  11   6    6 C     2.86567580857E-01 -4.50166156481E-01  4.10949399992E-01
 247  11   7    6 C    -3.75618180865E-01  2.63266262662E-01  2.13432419143E-01
 248  11   8    6 C    -1.38884443527E-01 -4.98338435190E-02  2.36733737338E-01
 249  11   9    6 C    -4.98338435190E-02  2.36733737338E-01 -1.38884443527E-01
 250  11  10    6 C    -3.61115556473E-01 -1.24381819135E-01  8.90506000080E-02
 251  11  11    6 C    -1.24381819135E-01  8.90506000080E-02 -3.61115556473E-01
 252  11  12    6 C     2.13432419143E-01 -3.75618180865E-01  2.63266262662E-01
 253  11  13    6 C    -2.13432419143E-01 -8.90506000080E-02  4.98338435190E-02
 254  11  14    6 C     3.61115556473E-01 -2.63266262662E-01  4.50166156481E-01
 255  11  15    6 C     1.38884443527E-01 -4.10949399992E-01  3.75618180865E-01
 256  11  16    6 C    -2.86567580857E-01 -2.36733737338E-01  1.24381819135E-01
 257  11  17    6 C    -8.90506000080E-02  4.98338435190E-02 -2.13432419143E-01
 258  11  18    6 C     4.98338435190E-02 -2.13432419143E-01 -8.90506000080E-02
 259  11  19    6 C    -2.36733737338E-01  1.24381819135E-01 -2.86567580857E-01
 260  11  20    6 C     4.50166156481E-01  3.61115556473E-01 -2.63266262662E-01
 261  11  21    6 C    -2.63266262662E-01  4.50166156481E-01  3.61115556473E-01
 262  11  22    6 C     3.75618180865E-01  1.38884443527E-01 -4.10949399992E-01
 263  11  23    6 C    -4.10949399992E-01  3.75618180865E-01  1.38884443527E-01
 264  11  24    6 C     1.24381819135E-01 -2.86567580857E-01 -2.36733737338E-01

 265  12   1    6 C     3.67453732464E-01  3.18714242804E-01 -4.32648002912E-01
 266  12   2    6 C     2.51362245716E-01 -1.99898264625E-01 -6.73519970885E-02
 267  12   3    6 C     1.32546267536E-01 -3.00101735375E-01 -4.87394896595E-02
 268  12   4    6 C     2.48637754284E-01  1.81285757196E-01 -4.51260510341E-01
 269  12   5    6 C    -4.32648002912E-01  3.67453732464E-01  3.18714242804E-01
 270  12   6    6 C     3.18714242804E-01 -4.32648002912E-01  3.67453732464E-01
 271  12   7    6 C    -4.51260510341E-01  2.48637754284E-01  1.81285757196E-01
 272  12   8    6 C    -1.99898264625E-01 -6.73519970885E-02  2.51362245716E-01
 273  12   9    6 C    -6.73519970885E-02  2.51362245716E-01 -1.99898264625E-01
 274  12  10    6 C    -3.00101735375E-01 -4.87394896595E-02  1.32546267536E-01
 275  12  11    6 C    -4.87394896595E-02  1.32546267536E-01 -3.00101735375E-01
 276  12  12    6 C     1.81285757196E-01 -4.51260510341E-01  2.48637754284E-01
 277  12  13    6 C    -1.81285757196E-01 -1.32546267536E-01  6.73519970885E-02
 278  12  14    6 C     3.00101735375E-01 -2.48637754284E-01  4.32648002912E-01
 279  12  15    6 C     1.99898264625E-01 -3.67453732464E-01  4.51260510341E-01
 280  12  16    6 C    -3.18714242804E-01 -2.51362245716E-01  4.87394896595E-02
 281  12  17    6 C    -1.32546267536E-01  6.73519970885E-02 -1.81285757196E-01
 282  12  18    6 C     6.73519970885E-02 -1.81285757196E-01 -1.32546267536E-01
 283  12  19    6 C    -2.51362245716E-01  4.87394896595E-02 -3.18714242804E-01
 284  12  20    6 C     4.32648002912E-01  3.00101735375E-01 -2.48637754284E-01
 285  12  21    6 C    -2.48637754284E-01  4.32648002912E-01  3.00101735375E-01
 286  12  22    6 C     4.51260510341E-01  1.99898264625E-01 -3.67453732464E-01
 287  12  23    6 C    -3.67453732464E-01  4.51260510341E-01  1.99898264625E-01
 288  12  24    6 C     4.87394896595E-02 -3.18714242804E-01 -2.51362245716E-01

 289  13   1    6 C     3.61783468343E-01  2.97517845731E-01 -4.08325044924E-01
 290  13   2    6 C     2.05842890655E-01 -2.29891486733E-01 -9.16749550755E-02
 291  13   3    6 C     1.38216531657E-01 -2.70108513267E-01 -6.42656226119E-02
 292  13   4    6 C     2.94157109345E-01  2.02482154269E-01 -4.35734377388E-01
 293  13   5    6 C    -4.08325044924E-01  3.61783468343E-01  2.97517845731E-01
 294  13   6    6 C     2.97517845731E-01 -4.08325044924E-01  3.61783468343E-01
 295  13   7    6 C    -4.35734377388E-01  2.94157109345E-01  2.02482154269E-01
 296  13   8    6 C    -2.29891486733E-01 -9.16749550755E-02  2.05842890655E-01
 297  13   9    6 C    -9.16749550755E-02  2.05842890655E-01 -2.29891486733E-01
 298  13  10    6 C    -2.70108513267E-01 -6.42656226119E-02  1.38216531657E-01
 299  13  11    6 C    -6.42656226119E-02  1.38216531657E-01 -2.70108513267E-01
 300  13  12    6 C     2.02482154269E-01 -4.35734377388E-01  2.94157109345E-01
 301  13  13    6 C    -2.02482154269E-01 -1.38216531657E-01  9.16749550755E-02
 302  13  14    6 C     2.70108513267E-01 -2.94157109345E-01  4.08325044925E-01
 303  13  15    6 C     2.29891486733E-01 -3.61783468343E-01  4.35734377388E-01
 304  13  16    6 C    -2.97517845731E-01 -2.05842890655E-01  6.42656226119E-02
 305  13  17    6 C    -1.38216531657E-01  9.16749550755E-02 -2.02482154269E-01
 306  13  18    6 C     9.16749550755E-02 -2.02482154269E-01 -1.38216531657E-01
 307  13  19    6 C    -2.05842890655E-01  6.42656226119E-02 -2.97517845731E-01
 308  13  20    6 C     4.08325044925E-01  2.70108513267E-01 -2.94157109345E-01
 309  13  21    6 C    -2.94157109345E-01  4.08325044925E-01  2.70108513267E-01
 310  13  22    6 C     4.35734377388E-01  2.29891486733E-01 -3.61783468343E-01
 311  13  23    6 C    -3.61783468343E-01  4.35734377388E-01  2.29891486733E-01
 312  13  24    6 C     6.42656226119E-02 -2.97517845731E-01 -2.05842890655E-01

 313  14   1    6 C     3.81558838341E-01  2.71298351531E-01 -4.03563846380E-01
 314  14   2    6 C     1.74862197911E-01 -2.14877315279E-01 -9.64361536198E-02
 315  14   3    6 C     1.18441161659E-01 -2.85122684721E-01 -1.10260486810E-01
 316  14   4    6 C     3.25137802089E-01  2.28701648469E-01 -3.89739513190E-01
 317  14   5    6 C    -4.03563846380E-01  3.81558838341E-01  2.71298351531E-01
 318  14   6    6 C     2.71298351531E-01 -4.03563846380E-01  3.81558838341E-01
 319  14   7    6 C    -3.89739513190E-01  3.25137802089E-01  2.28701648469E-01
 320  14   8    6 C    -2.14877315279E-01 -9.64361536198E-02  1.74862197911E-01
 321  14   9    6 C    -9.64361536198E-02  1.74862197911E-01 -2.14877315279E-01
 322  14  10    6 C    -2.85122684721E-01 -1.10260486810E-01  1.18441161659E-01
 323  14  11    6 C    -1.10260486810E-01  1.18441161659E-01 -2.85122684721E-01
 324  14  12    6 C     2.28701648469E-01 -3.89739513190E-01  3.25137802089E-01
 325  14  13    6 C    -2.28701648469E-01 -1.18441161659E-01  9.64361536198E-02
 326  14  14    6 C     2.85122684721E-01 -3.25137802089E-01  4.03563846380E-01
 327  14  15    6 C     2.14877315279E-01 -3.81558838341E-01  3.89739513190E-01
 328  14  16    6 C    -2.71298351531E-01 -1.74862197911E-01  1.10260486810E-01
 329  14  17    6 C    -1.18441161659E-01  9.64361536198E-02 -2.28701648469E-01
 330  14  18    6 C     9.64361536198E-02 -2.28701648469E-01 -1.18441161659E-01
 331  14  19    6 C    -1.74862197911E-01  1.10260486810E-01 -2.71298351531E-01
 332  14  20    6 C     4.03563846380E-01  2.85122684721E-01 -3.25137802089E-01
 333  14  21    6 C    -3.25137802089E-01  4.03563846380E-01  2.85122684721E-01
 334  14  22    6 C     3.89739513190E-01  2.14877315279E-01 -3.81558838341E-01
 335  14  23    6 C    -3.81558838341E-01  3.89739513190E-01  2.14877315279E-01
 336  14  24    6 C     1.10260486810E-01 -2.71298351531E-01 -1.74862197911E-01

 337  15   1    1 H     4.20134519054E-01  2.44345388324E-01 -4.23250992378E-01
 338  15   2    1 H     1.67596380702E-01 -1.56614488568E-01 -7.67490076220E-02
 339  15   3    1 H     7.98654809456E-02 -3.43385511432E-01 -1.75789130730E-01
 340  15   4    1 H     3.32403619298E-01  2.55654611676E-01 -3.24210869270E-01
 341  15   5    1 H    -4.23250992378E-01  4.20134519054E-01  2.44345388324E-01
 342  15   6    1 H     2.44345388324E-01 -4.23250992378E-01  4.20134519054E-01
 343  15   7    1 H    -3.24210869270E-01  3.32403619298E-01  2.55654611676E-01
 344  15   8    1 H    -1.56614488568E-01 -7.67490076220E-02  1.67596380702E-01
 345  15   9    1 H    -7.67490076220E-02  1.67596380702E-01 -1.56614488568E-01
 346  15  10    1 H    -3.43385511432E-01 -1.75789130730E-01  7.98654809456E-02
 347  15  11    1 H    -1.75789130730E-01  7.98654809456E-02 -3.43385511432E-01
 348  15  12    1 H     2.55654611676E-01 -3.24210869270E-01  3.32403619298E-01
 349  15  13    1 H    -2.55654611676E-01 -7.98654809456E-02  7.67490076220E-02
 350  15  14    1 H     3.43385511432E-01 -3.32403619298E-01  4.23250992378E-01
 351  15  15    1 H     1.56614488568E-01 -4.20134519054E-01  3.24210869270E-01
 352  15  16    1 H    -2.44345388324E-01 -1.67596380702E-01  1.75789130730E-01
 353  15  17    1 H    -7.98654809456E-02  7.67490076220E-02 -2.55654611676E-01
 354  15  18    1 H     7.67490076220E-02 -2.55654611676E-01 -7.98654809456E-02
 355  15  19    1 H    -1.67596380702E-01  1.75789130730E-01 -2.44345388324E-01
 356  15  20    1 H     4.23250992378E-01  3.43385511432E-01 -3.32403619298E-01
 357  15  21    1 H    -3.32403619298E-01  4.23250992378E-01  3.43385511432E-01
 358  15  22    1 H     3.24210869270E-01  1.56614488568E-01 -4.20134519054E-01
 359  15  23    1 H    -4.20134519054E-01  3.24210869270E-01  1.56614488568E-01
 360  15  24    1 H     1.75789130730E-01 -2.44345388324E-01 -1.67596380702E-01

 361  16   1    1 H     3.41113386713E-01  3.00298537601E-01 -3.93156426265E-01
 362  16   2    1 H     1.93454963866E-01 -2.65730187022E-01 -1.06843573735E-01
 363  16   3    1 H     1.58886613287E-01 -2.34269812978E-01 -4.08148491120E-02
 364  16   4    1 H     3.06545036134E-01  1.99701462399E-01 -4.59185150888E-01
 365  16   5    1 H    -3.93156426265E-01  3.41113386713E-01  3.00298537601E-01
 366  16   6    1 H     3.00298537601E-01 -3.93156426265E-01  3.41113386713E-01
 367  16   7    1 H    -4.59185150888E-01  3.06545036134E-01  1.99701462399E-01
 368  16   8    1 H    -2.65730187022E-01 -1.06843573735E-01  1.93454963866E-01
 369  16   9    1 H    -1.06843573735E-01  1.93454963866E-01 -2.65730187022E-01
 370  16  10    1 H    -2.34269812978E-01 -4.08148491120E-02  1.58886613287E-01
 371  16  11    1 H    -4.08148491120E-02  1.58886613287E-01 -2.34269812978E-01
 372  16  12    1 H     1.99701462399E-01 -4.59185150888E-01  3.06545036134E-01
 373  16  13    1 H    -1.99701462399E-01 -1.58886613287E-01  1.06843573735E-01
 374  16  14    1 H     2.34269812978E-01 -3.06545036134E-01  3.93156426265E-01
 375  16  15    1 H     2.65730187022E-01 -3.41113386713E-01  4.59185150888E-01
 376  16  16    1 H    -3.00298537601E-01 -1.93454963866E-01  4.08148491120E-02
 377  16  17    1 H    -1.58886613287E-01  1.06843573735E-01 -1.99701462399E-01
 378  16  18    1 H     1.06843573735E-01 -1.99701462399E-01 -1.58886613287E-01
 379  16  19    1 H    -1.93454963866E-01  4.08148491120E-02 -3.00298537601E-01
 380  16  20    1 H     3.93156426265E-01  2.34269812978E-01 -3.06545036134E-01
 381  16  21    1 H    -3.06545036134E-01  3.93156426265E-01  2.34269812978E-01
 382  16  22    1 H     4.59185150888E-01  2.65730187022E-01 -3.41113386713E-01
 383  16  23    1 H    -3.41113386713E-01  4.59185150888E-01  2.65730187022E-01
 384  16  24    1 H     4.08148491120E-02 -3.00298537601E-01 -1.93454963866E-01

 385  17   1    6 C     3.92329763890E-01  3.13672941129E-01 -4.53972366579E-01
 386  17   2    6 C     2.67645307708E-01 -1.53697869530E-01 -4.60276334209E-02
 387  17   3    6 C     1.07670236110E-01 -3.46302130470E-01 -7.86568227613E-02
 388  17   4    6 C     2.32354692292E-01  1.86327058871E-01 -4.21343177239E-01
 389  17   5    6 C    -4.53972366579E-01  3.92329763890E-01  3.13672941129E-01
 390  17   6    6 C     3.13672941129E-01 -4.53972366579E-01  3.92329763890E-01
 391  17   7    6 C    -4.21343177239E-01  2.32354692292E-01  1.86327058871E-01
 392  17   8    6 C    -1.53697869530E-01 -4.60276334209E-02  2.67645307708E-01
 393  17   9    6 C    -4.60276334209E-02  2.67645307708E-01 -1.53697869530E-01
 394  17  10    6 C    -3.46302130470E-01 -7.86568227613E-02  1.07670236110E-01
 395  17  11    6 C    -7.86568227613E-02  1.07670236110E-01 -3.46302130470E-01
 396  17  12    6 C     1.86327058871E-01 -4.21343177239E-01  2.32354692292E-01
 397  17  13    6 C    -1.86327058871E-01 -1.07670236110E-01  4.60276334209E-02
 398  17  14    6 C     3.46302130470E-01 -2.32354692292E-01  4.53972366579E-01
 399  17  15    6 C     1.53697869530E-01 -3.92329763890E-01  4.21343177239E-01
 400  17  16    6 C    -3.13672941129E-01 -2.67645307708E-01  7.86568227613E-02
 401  17  17    6 C    -1.07670236110E-01  4.60276334209E-02 -1.86327058871E-01
 402  17  18    6 C     4.60276334209E-02 -1.86327058871E-01 -1.07670236110E-01
 403  17  19    6 C    -2.67645307708E-01  7.86568227613E-02 -3.13672941129E-01
 404  17  20    6 C     4.53972366579E-01  3.46302130470E-01 -2.32354692292E-01
 405  17  21    6 C    -2.32354692292E-01  4.53972366579E-01  3.46302130470E-01
 406  17  22    6 C     4.21343177239E-01  1.53697869530E-01 -3.92329763890E-01
 407  17  23    6 C    -3.92329763890E-01  4.21343177239E-01  1.53697869530E-01
 408  17  24    6 C     7.86568227613E-02 -3.13672941129E-01 -2.67645307708E-01

 409  18   1    6 C     4.05688241140E-01  2.65635200752E-01 -4.25343363823E-01
 410  18   2    6 C     1.90978564574E-01 -1.68968395038E-01 -7.46566361774E-02
 411  18   3    6 C     9.43117588603E-02 -3.31031604962E-01 -1.40053040388E-01
 412  18   4    6 C     3.09021435426E-01  2.34364799248E-01 -3.59946959612E-01
 413  18   5    6 C    -4.25343363823E-01  4.05688241140E-01  2.65635200752E-01
 414  18   6    6 C     2.65635200752E-01 -4.25343363823E-01  4.05688241140E-01
 415  18   7    6 C    -3.59946959612E-01  3.09021435426E-01  2.34364799248E-01
 416  18   8    6 C    -1.68968395038E-01 -7.46566361774E-02  1.90978564574E-01
 417  18   9    6 C    -7.46566361774E-02  1.90978564574E-01 -1.68968395038E-01
 418  18  10    6 C    -3.31031604962E-01 -1.40053040388E-01  9.43117588603E-02
 419  18  11    6 C    -1.40053040388E-01  9.43117588603E-02 -3.31031604962E-01
 420  18  12    6 C     2.34364799248E-01 -3.59946959612E-01  3.09021435426E-01
 421  18  13    6 C    -2.34364799248E-01 -9.43117588603E-02  7.46566361774E-02
 422  18  14    6 C     3.31031604962E-01 -3.09021435426E-01  4.25343363823E-01
 423  18  15    6 C     1.68968395038E-01 -4.05688241140E-01  3.59946959612E-01
 424  18  16    6 C    -2.65635200752E-01 -1.90978564574E-01  1.40053040388E-01
 425  18  17    6 C    -9.43117588603E-02  7.46566361774E-02 -2.34364799248E-01
 426  18  18    6 C     7.46566361774E-02 -2.34364799248E-01 -9.43117588603E-02
 427  18  19    6 C    -1.90978564574E-01  1.40053040388E-01 -2.65635200752E-01
 428  18  20    6 C     4.25343363823E-01  3.31031604962E-01 -3.09021435426E-01
 429  18  21    6 C    -3.09021435426E-01  4.25343363823E-01  3.31031604962E-01
 430  18  22    6 C     3.59946959612E-01  1.68968395038E-01 -4.05688241140E-01
 431  18  23    6 C    -4.05688241140E-01  3.59946959612E-01  1.68968395038E-01
 432  18  24    6 C     1.40053040388E-01 -2.65635200752E-01 -1.90978564574E-01

 433  19   1    1 H     3.52035142650E-01  3.39095077454E-01 -4.35826954191E-01
 434  19   2    1 H     2.74922031645E-01 -2.12137903158E-01 -6.41730458086E-02
 435  19   3    1 H     1.47964857350E-01 -2.87862096842E-01 -1.29400651968E-02
 436  19   4    1 H     2.25077968355E-01  1.60904922546E-01 -4.87059934803E-01
 437  19   5    1 H    -4.35826954191E-01  3.52035142650E-01  3.39095077454E-01
 438  19   6    1 H     3.39095077454E-01 -4.35826954191E-01  3.52035142650E-01
 439  19   7    1 H    -4.87059934803E-01  2.25077968355E-01  1.60904922546E-01
 440  19   8    1 H    -2.12137903158E-01 -6.41730458086E-02  2.74922031645E-01
 441  19   9    1 H    -6.41730458086E-02  2.74922031645E-01 -2.12137903158E-01
 442  19  10    1 H    -2.87862096842E-01 -1.29400651968E-02  1.47964857350E-01
 443  19  11    1 H    -1.29400651968E-02  1.47964857350E-01 -2.87862096842E-01
 444  19  12    1 H     1.60904922546E-01 -4.87059934803E-01  2.25077968355E-01
 445  19  13    1 H    -1.60904922546E-01 -1.47964857350E-01  6.41730458086E-02
 446  19  14    1 H     2.87862096842E-01 -2.25077968355E-01  4.35826954191E-01
 447  19  15    1 H     2.12137903158E-01 -3.52035142650E-01  4.87059934803E-01
 448  19  16    1 H    -3.39095077454E-01 -2.74922031645E-01  1.29400651968E-02
 449  19  17    1 H    -1.47964857350E-01  6.41730458086E-02 -1.60904922546E-01
 450  19  18    1 H     6.41730458086E-02 -1.60904922546E-01 -1.47964857350E-01
 451  19  19    1 H    -2.74922031645E-01  1.29400651968E-02 -3.39095077454E-01
 452  19  20    1 H     4.35826954191E-01  2.87862096842E-01 -2.25077968355E-01
 453  19  21    1 H    -2.25077968355E-01  4.35826954191E-01  2.87862096842E-01
 454  19  22    1 H     4.87059934803E-01  2.12137903158E-01 -3.52035142650E-01
 455  19  23    1 H    -3.52035142650E-01  4.87059934803E-01  2.12137903158E-01
 456  19  24    1 H     1.29400651968E-02 -3.39095077454E-01 -2.74922031645E-01

 457  20   1    6 C    -2.50000000000E-01 -1.25000000000E-01  1.25000000000E-01
 458  20   2    6 C     2.50000000000E-01 -3.75000000000E-01  3.75000000000E-01
 459  20   3    6 C     1.25000000000E-01 -2.50000000000E-01 -1.25000000000E-01
 460  20   4    6 C    -1.25000000000E-01  1.25000000000E-01 -2.50000000000E-01
 461  20   5    6 C     3.75000000000E-01  2.50000000000E-01 -3.75000000000E-01
 462  20   6    6 C    -3.75000000000E-01  3.75000000000E-01  2.50000000000E-01

 NUMBER OF SYMMETRY OPERATORS         :   24
 *******************************************************************************
 * GEOMETRY EDITING - INPUT COORDINATES ARE GIVEN IN ANGSTROM         
 *******************************************************************************

 GEOMETRY NOW FULLY CONSISTENT WITH THE GROUP

 GCALCO - MAX INDICES DIRECT LATTICE VECTOR    14    14    14
 NO.OF VECTORS CREATED 6999 STARS  122 RMAX   754.64091 BOHR

 GEOMETRY FOR WAVE FUNCTION - DIMENSIONALITY OF THE SYSTEM    3
 (NON PERIODIC DIRECTION: LATTICE PARAMETER FORMALLY SET TO 500)
 *******************************************************************************
 LATTICE PARAMETERS (ANGSTROMS AND DEGREES) - BOHR = 0.5291772083 ANGSTROM
 PRIMITIVE CELL - CENTRING CODE 6/0 VOLUME= 37923.587617 - DENSITY  0.208 g/cm^3
         A              B              C           ALPHA      BETA       GAMMA 
    36.65870356    36.65870356    36.65870356   109.471221 109.471221 109.471221
 *******************************************************************************
 ATOMS IN THE ASYMMETRIC UNIT   20 - ATOMS IN THE UNIT CELL:  462
     ATOM                 X/A                 Y/B                 Z/C    
 *******************************************************************************
      1 T   8 O    -4.879339247000E-01  3.794316213704E-01  3.628227931248E-01
      2 F   8 O    -4.833911717544E-01  1.492432821752E-01  1.371772068752E-01
      3 F   8 O    -1.206607530000E-02  3.507567178248E-01 -1.326344539296E-01
      4 F   8 O    -1.660882824560E-02  1.205683786296E-01 -3.673655460704E-01
      5 F   8 O     3.628227931248E-01 -4.879339247000E-01  3.794316213704E-01
      6 F   8 O     3.794316213704E-01  3.628227931248E-01 -4.879339247000E-01
      7 F   8 O    -3.673655460704E-01 -1.660882824560E-02  1.205683786296E-01
      8 F   8 O     1.492432821752E-01  1.371772068752E-01 -4.833911717544E-01
      9 F   8 O     1.371772068752E-01 -4.833911717544E-01  1.492432821752E-01
     10 F   8 O     3.507567178248E-01 -1.326344539296E-01 -1.206607530000E-02
     11 F   8 O    -1.326344539296E-01 -1.206607530000E-02  3.507567178248E-01
     12 F   8 O     1.205683786296E-01 -3.673655460704E-01 -1.660882824560E-02
     13 F   8 O    -1.205683786296E-01  1.206607530000E-02 -1.371772068752E-01
     14 F   8 O    -3.507567178248E-01  1.660882824560E-02 -3.628227931248E-01
     15 F   8 O    -1.492432821752E-01  4.879339247000E-01  3.673655460704E-01
     16 F   8 O    -3.794316213704E-01  4.833911717544E-01  1.326344539296E-01
     17 F   8 O     1.206607530000E-02 -1.371772068752E-01 -1.205683786296E-01
     18 F   8 O    -1.371772068752E-01 -1.205683786296E-01  1.206607530000E-02
     19 F   8 O     4.833911717544E-01  1.326344539296E-01 -3.794316213704E-01
     20 F   8 O    -3.628227931248E-01 -3.507567178248E-01  1.660882824560E-02
     21 F   8 O     1.660882824560E-02 -3.628227931248E-01 -3.507567178248E-01
     22 F   8 O     3.673655460704E-01 -1.492432821752E-01  4.879339247000E-01
     23 F   8 O     4.879339247000E-01  3.673655460704E-01 -1.492432821752E-01
     24 F   8 O     1.326344539296E-01 -3.794316213704E-01  4.833911717544E-01
     25 T   7 N     4.525432628803E-01  4.368239135826E-01  3.650157196743E-01
     26 F   7 N    -4.281918060917E-01  8.752754320600E-02  1.349842803257E-01
     27 F   7 N     4.745673711970E-02  4.124724567940E-01 -1.571934929770E-02
     28 F   7 N    -7.180819390830E-02  6.317608641740E-02 -4.842806507023E-01
     29 F   7 N     3.650157196743E-01  4.525432628803E-01  4.368239135826E-01
     30 F   7 N     4.368239135826E-01  3.650157196743E-01  4.525432628803E-01
     31 F   7 N    -4.842806507023E-01 -7.180819390830E-02  6.317608641740E-02
     32 F   7 N     8.752754320600E-02  1.349842803257E-01 -4.281918060917E-01
     33 F   7 N     1.349842803257E-01 -4.281918060917E-01  8.752754320600E-02
     34 F   7 N     4.124724567940E-01 -1.571934929770E-02  4.745673711970E-02
     35 F   7 N    -1.571934929770E-02  4.745673711970E-02  4.124724567940E-01
     36 F   7 N     6.317608641740E-02 -4.842806507023E-01 -7.180819390830E-02
     37 F   7 N    -6.317608641740E-02 -4.745673711970E-02 -1.349842803257E-01
     38 F   7 N    -4.124724567940E-01  7.180819390830E-02 -3.650157196743E-01
     39 F   7 N    -8.752754320600E-02 -4.525432628803E-01  4.842806507023E-01
     40 F   7 N    -4.368239135826E-01  4.281918060917E-01  1.571934929770E-02
     41 F   7 N    -4.745673711970E-02 -1.349842803257E-01 -6.317608641740E-02
     42 F   7 N    -1.349842803257E-01 -6.317608641740E-02 -4.745673711970E-02
     43 F   7 N     4.281918060917E-01  1.571934929770E-02 -4.368239135826E-01
     44 F   7 N    -3.650157196743E-01 -4.124724567940E-01  7.180819390830E-02
     45 F   7 N     7.180819390830E-02 -3.650157196743E-01 -4.124724567940E-01
     46 F   7 N     4.842806507023E-01 -8.752754320600E-02 -4.525432628803E-01
     47 F   7 N    -4.525432628803E-01  4.842806507023E-01 -8.752754320600E-02
     48 F   7 N     1.571934929770E-02 -4.368239135826E-01  4.281918060917E-01
     49 T   6 C     4.858234182661E-01  3.925368155385E-01  3.762145048040E-01
     50 F   6 C    -4.836776892655E-01  1.096089134621E-01  1.237854951960E-01
     51 F   6 C     1.417658173390E-02  3.903910865379E-01 -9.328660272760E-02
     52 F   6 C    -1.632231073450E-02  1.074631844615E-01 -4.067133972724E-01
     53 F   6 C     3.762145048040E-01  4.858234182661E-01  3.925368155385E-01
     54 F   6 C     3.925368155385E-01  3.762145048040E-01  4.858234182661E-01
     55 F   6 C    -4.067133972724E-01 -1.632231073450E-02  1.074631844615E-01
     56 F   6 C     1.096089134621E-01  1.237854951960E-01 -4.836776892655E-01
     57 F   6 C     1.237854951960E-01 -4.836776892655E-01  1.096089134621E-01
     58 F   6 C     3.903910865379E-01 -9.328660272760E-02  1.417658173390E-02
     59 F   6 C    -9.328660272760E-02  1.417658173390E-02  3.903910865379E-01
     60 F   6 C     1.074631844615E-01 -4.067133972724E-01 -1.632231073450E-02
     61 F   6 C    -1.074631844615E-01 -1.417658173390E-02 -1.237854951960E-01
     62 F   6 C    -3.903910865379E-01  1.632231073450E-02 -3.762145048040E-01
     63 F   6 C    -1.096089134621E-01 -4.858234182661E-01  4.067133972724E-01
     64 F   6 C    -3.925368155385E-01  4.836776892655E-01  9.328660272760E-02
     65 F   6 C    -1.417658173390E-02 -1.237854951960E-01 -1.074631844615E-01
     66 F   6 C    -1.237854951960E-01 -1.074631844615E-01 -1.417658173390E-02
     67 F   6 C     4.836776892655E-01  9.328660272760E-02 -3.925368155385E-01
     68 F   6 C    -3.762145048040E-01 -3.903910865379E-01  1.632231073450E-02
     69 F   6 C     1.632231073450E-02 -3.762145048040E-01 -3.903910865379E-01
     70 F   6 C     4.067133972724E-01 -1.096089134621E-01 -4.858234182661E-01
     71 F   6 C    -4.858234182661E-01  4.067133972724E-01 -1.096089134621E-01
     72 F   6 C     9.328660272760E-02 -3.925368155385E-01  4.836776892655E-01
     73 T   6 C     4.089631423702E-01  4.454540685331E-01  4.004988269539E-01
     74 F   6 C    -4.550447584208E-01  8.464315416300E-03  9.950117304610E-02
     75 F   6 C     9.103685762980E-02  4.915356845837E-01  3.649092616290E-02
     76 F   6 C    -4.495524157920E-02  5.454593146690E-02  4.635090738371E-01
     77 F   6 C     4.004988269539E-01  4.089631423702E-01  4.454540685331E-01
     78 F   6 C     4.454540685331E-01  4.004988269539E-01  4.089631423702E-01
     79 F   6 C     4.635090738371E-01 -4.495524157920E-02  5.454593146690E-02
     80 F   6 C     8.464315416300E-03  9.950117304610E-02 -4.550447584208E-01
     81 F   6 C     9.950117304610E-02 -4.550447584208E-01  8.464315416300E-03
     82 F   6 C     4.915356845837E-01  3.649092616290E-02  9.103685762980E-02
     83 F   6 C     3.649092616290E-02  9.103685762980E-02  4.915356845837E-01
     84 F   6 C     5.454593146690E-02  4.635090738371E-01 -4.495524157920E-02
     85 F   6 C    -5.454593146690E-02 -9.103685762980E-02 -9.950117304610E-02
     86 F   6 C    -4.915356845837E-01  4.495524157920E-02 -4.004988269539E-01
     87 F   6 C    -8.464315416300E-03 -4.089631423702E-01 -4.635090738371E-01
     88 F   6 C    -4.454540685331E-01  4.550447584208E-01 -3.649092616290E-02
     89 F   6 C    -9.103685762980E-02 -9.950117304610E-02 -5.454593146690E-02
     90 F   6 C    -9.950117304610E-02 -5.454593146690E-02 -9.103685762980E-02
     91 F   6 C     4.550447584208E-01 -3.649092616290E-02 -4.454540685331E-01
     92 F   6 C    -4.004988269539E-01 -4.915356845837E-01  4.495524157920E-02
     93 F   6 C     4.495524157920E-02 -4.004988269539E-01 -4.915356845837E-01
     94 F   6 C    -4.635090738371E-01 -8.464315416300E-03 -4.089631423702E-01
     95 F   6 C    -4.089631423702E-01 -4.635090738371E-01 -8.464315416300E-03
     96 F   6 C    -3.649092616290E-02 -4.454540685331E-01  4.550447584208E-01
     97 T   8 O     4.228612347510E-01  3.336087264342E-01  4.969594328496E-01
     98 F   8 O     3.366492935846E-01 -7.409819809860E-02  3.040567150400E-03
     99 F   8 O     7.713876524900E-02 -4.259018019014E-01 -8.925250831680E-02
    100 F   8 O     1.633507064154E-01  1.663912735658E-01 -4.107474916832E-01
    101 F   8 O     4.969594328496E-01  4.228612347510E-01  3.336087264342E-01
    102 F   8 O     3.336087264342E-01  4.969594328496E-01  4.228612347510E-01
    103 F   8 O    -4.107474916832E-01  1.633507064154E-01  1.663912735658E-01
    104 F   8 O    -7.409819809860E-02  3.040567150400E-03  3.366492935846E-01
    105 F   8 O     3.040567150400E-03  3.366492935846E-01 -7.409819809860E-02
    106 F   8 O    -4.259018019014E-01 -8.925250831680E-02  7.713876524900E-02
    107 F   8 O    -8.925250831680E-02  7.713876524900E-02 -4.259018019014E-01
    108 F   8 O     1.663912735658E-01 -4.107474916832E-01  1.633507064154E-01
    109 F   8 O    -1.663912735658E-01 -7.713876524900E-02 -3.040567150400E-03
    110 F   8 O     4.259018019014E-01 -1.633507064154E-01 -4.969594328496E-01
    111 F   8 O     7.409819809860E-02 -4.228612347510E-01  4.107474916832E-01
    112 F   8 O    -3.336087264342E-01 -3.366492935846E-01  8.925250831680E-02
    113 F   8 O    -7.713876524900E-02 -3.040567150400E-03 -1.663912735658E-01
    114 F   8 O    -3.040567150400E-03 -1.663912735658E-01 -7.713876524900E-02
    115 F   8 O    -3.366492935846E-01  8.925250831680E-02 -3.336087264342E-01
    116 F   8 O    -4.969594328496E-01  4.259018019014E-01 -1.633507064154E-01
    117 F   8 O    -1.633507064154E-01 -4.969594328496E-01  4.259018019014E-01
    118 F   8 O     4.107474916832E-01  7.409819809860E-02 -4.228612347510E-01
    119 F   8 O    -4.228612347510E-01  4.107474916832E-01  7.409819809860E-02
    120 F   8 O     8.925250831680E-02 -3.336087264342E-01 -3.366492935846E-01
    121 T   7 N     4.711166657548E-01  3.826586193871E-01  4.011232063727E-01
    122 F   7 N     4.815354130144E-01  6.999345938210E-02  9.887679362730E-02
    123 F   7 N     2.888333424520E-02  4.300065406179E-01 -8.845804636770E-02
    124 F   7 N     1.846458698560E-02  1.173413806129E-01 -4.115419536323E-01
    125 F   7 N     4.011232063727E-01  4.711166657548E-01  3.826586193871E-01
    126 F   7 N     3.826586193871E-01  4.011232063727E-01  4.711166657548E-01
    127 F   7 N    -4.115419536323E-01  1.846458698560E-02  1.173413806129E-01
    128 F   7 N     6.999345938210E-02  9.887679362730E-02  4.815354130144E-01
    129 F   7 N     9.887679362730E-02  4.815354130144E-01  6.999345938210E-02
    130 F   7 N     4.300065406179E-01 -8.845804636770E-02  2.888333424520E-02
    131 F   7 N    -8.845804636770E-02  2.888333424520E-02  4.300065406179E-01
    132 F   7 N     1.173413806129E-01 -4.115419536323E-01  1.846458698560E-02
    133 F   7 N    -1.173413806129E-01 -2.888333424520E-02 -9.887679362730E-02
    134 F   7 N    -4.300065406179E-01 -1.846458698560E-02 -4.011232063727E-01
    135 F   7 N    -6.999345938210E-02 -4.711166657548E-01  4.115419536323E-01
    136 F   7 N    -3.826586193871E-01 -4.815354130144E-01  8.845804636770E-02
    137 F   7 N    -2.888333424520E-02 -9.887679362730E-02 -1.173413806129E-01
    138 F   7 N    -9.887679362730E-02 -1.173413806129E-01 -2.888333424520E-02
    139 F   7 N    -4.815354130144E-01  8.845804636770E-02 -3.826586193871E-01
    140 F   7 N    -4.011232063727E-01 -4.300065406179E-01 -1.846458698560E-02
    141 F   7 N    -1.846458698560E-02 -4.011232063727E-01 -4.300065406179E-01
    142 F   7 N     4.115419536323E-01 -6.999345938210E-02 -4.711166657548E-01
    143 F   7 N    -4.711166657548E-01  4.115419536323E-01 -6.999345938210E-02
    144 F   7 N     8.845804636770E-02 -3.826586193871E-01 -4.815354130144E-01
    145 T   6 C     3.583543413999E-01  4.766118937700E-01  4.191984548003E-01
    146 F   6 C    -4.425865610303E-01 -6.084411340040E-02  8.080154519970E-02
    147 F   6 C     1.416456586001E-01 -4.391558865996E-01  1.182575523701E-01
    148 F   6 C    -5.741343896970E-02  2.338810623000E-02  3.817424476299E-01
    149 F   6 C     4.191984548003E-01  3.583543413999E-01  4.766118937700E-01
    150 F   6 C     4.766118937700E-01  4.191984548003E-01  3.583543413999E-01
    151 F   6 C     3.817424476299E-01 -5.741343896970E-02  2.338810623000E-02
    152 F   6 C    -6.084411340040E-02  8.080154519970E-02 -4.425865610303E-01
    153 F   6 C     8.080154519970E-02 -4.425865610303E-01 -6.084411340040E-02
    154 F   6 C    -4.391558865996E-01  1.182575523701E-01  1.416456586001E-01
    155 F   6 C     1.182575523701E-01  1.416456586001E-01 -4.391558865996E-01
    156 F   6 C     2.338810623000E-02  3.817424476299E-01 -5.741343896970E-02
    157 F   6 C    -2.338810623000E-02 -1.416456586001E-01 -8.080154519970E-02
    158 F   6 C     4.391558865996E-01  5.741343896970E-02 -4.191984548003E-01
    159 F   6 C     6.084411340040E-02 -3.583543413999E-01 -3.817424476299E-01
    160 F   6 C    -4.766118937700E-01  4.425865610303E-01 -1.182575523701E-01
    161 F   6 C    -1.416456586001E-01 -8.080154519970E-02 -2.338810623000E-02
    162 F   6 C    -8.080154519970E-02 -2.338810623000E-02 -1.416456586001E-01
    163 F   6 C     4.425865610303E-01 -1.182575523701E-01 -4.766118937700E-01
    164 F   6 C    -4.191984548003E-01  4.391558865996E-01  5.741343896970E-02
    165 F   6 C     5.741343896970E-02 -4.191984548003E-01  4.391558865996E-01
    166 F   6 C    -3.817424476299E-01  6.084411340040E-02 -3.583543413999E-01
    167 F   6 C    -3.583543413999E-01 -3.817424476299E-01  6.084411340040E-02
    168 F   6 C    -1.182575523701E-01 -4.766118937700E-01  4.425865610303E-01
    169 T   5 B     3.981862035434E-01  3.364525558987E-01 -4.812586636137E-01
    170 F   5 B     3.177112195124E-01 -1.205551328429E-01 -1.874133638630E-02
    171 F   5 B     1.018137964566E-01 -3.794448671571E-01 -6.173364764470E-02
    172 F   5 B     1.822887804876E-01  1.635474441013E-01 -4.382663523553E-01
    173 F   5 B    -4.812586636137E-01  3.981862035434E-01  3.364525558987E-01
    174 F   5 B     3.364525558987E-01 -4.812586636137E-01  3.981862035434E-01
    175 F   5 B    -4.382663523553E-01  1.822887804876E-01  1.635474441013E-01
    176 F   5 B    -1.205551328429E-01 -1.874133638630E-02  3.177112195124E-01
    177 F   5 B    -1.874133638630E-02  3.177112195124E-01 -1.205551328429E-01
    178 F   5 B    -3.794448671571E-01 -6.173364764470E-02  1.018137964566E-01
    179 F   5 B    -6.173364764470E-02  1.018137964566E-01 -3.794448671571E-01
    180 F   5 B     1.635474441013E-01 -4.382663523553E-01  1.822887804876E-01
    181 F   5 B    -1.635474441013E-01 -1.018137964566E-01  1.874133638630E-02
    182 F   5 B     3.794448671571E-01 -1.822887804876E-01  4.812586636137E-01
    183 F   5 B     1.205551328429E-01 -3.981862035434E-01  4.382663523553E-01
    184 F   5 B    -3.364525558987E-01 -3.177112195124E-01  6.173364764470E-02
    185 F   5 B    -1.018137964566E-01  1.874133638630E-02 -1.635474441013E-01
    186 F   5 B     1.874133638630E-02 -1.635474441013E-01 -1.018137964566E-01
    187 F   5 B    -3.177112195124E-01  6.173364764470E-02 -3.364525558987E-01
    188 F   5 B     4.812586636137E-01  3.794448671571E-01 -1.822887804876E-01
    189 F   5 B    -1.822887804876E-01  4.812586636137E-01  3.794448671571E-01
    190 F   5 B     4.382663523553E-01  1.205551328429E-01 -3.981862035434E-01
    191 F   5 B    -3.981862035434E-01  4.382663523553E-01  1.205551328429E-01
    192 F   5 B     6.173364764470E-02 -3.364525558987E-01 -3.177112195124E-01
    193 T   6 C     4.363363111141E-01  4.272978933085E-01  3.911866620036E-01
    194 F   6 C    -4.638887686951E-01  4.514964911050E-02  1.088133379964E-01
    195 F   6 C     6.366368888590E-02  4.548503508895E-01 -9.038417805600E-03
    196 F   6 C    -3.611123130490E-02  7.270210669150E-02 -4.909615821944E-01
    197 F   6 C     3.911866620036E-01  4.363363111141E-01  4.272978933085E-01
    198 F   6 C     4.272978933085E-01  3.911866620036E-01  4.363363111141E-01
    199 F   6 C    -4.909615821944E-01 -3.611123130490E-02  7.270210669150E-02
    200 F   6 C     4.514964911050E-02  1.088133379964E-01 -4.638887686951E-01
    201 F   6 C     1.088133379964E-01 -4.638887686951E-01  4.514964911050E-02
    202 F   6 C     4.548503508895E-01 -9.038417805600E-03  6.366368888590E-02
    203 F   6 C    -9.038417805600E-03  6.366368888590E-02  4.548503508895E-01
    204 F   6 C     7.270210669150E-02 -4.909615821944E-01 -3.611123130490E-02
    205 F   6 C    -7.270210669150E-02 -6.366368888590E-02 -1.088133379964E-01
    206 F   6 C    -4.548503508895E-01  3.611123130490E-02 -3.911866620036E-01
    207 F   6 C    -4.514964911050E-02 -4.363363111141E-01  4.909615821944E-01
    208 F   6 C    -4.272978933085E-01  4.638887686951E-01  9.038417805600E-03
    209 F   6 C    -6.366368888590E-02 -1.088133379964E-01 -7.270210669150E-02
    210 F   6 C    -1.088133379964E-01 -7.270210669150E-02 -6.366368888590E-02
    211 F   6 C     4.638887686951E-01  9.038417805600E-03 -4.272978933085E-01
    212 F   6 C    -3.911866620036E-01 -4.548503508895E-01  3.611123130490E-02
    213 F   6 C     3.611123130490E-02 -3.911866620036E-01 -4.548503508895E-01
    214 F   6 C     4.909615821944E-01 -4.514964911050E-02 -4.363363111141E-01
    215 F   6 C    -4.363363111141E-01  4.909615821944E-01 -4.514964911050E-02
    216 F   6 C     9.038417805600E-03 -4.272978933085E-01  4.638887686951E-01
    217 T   1 H     4.297704081587E-01  2.816928631427E-01 -4.670990765912E-01
    218 F   1 H     2.487919397339E-01 -1.031305152501E-01 -3.290092340880E-02
    219 F   1 H     7.022959184133E-02 -3.968694847499E-01 -1.480775450160E-01
    220 F   1 H     2.512080602661E-01  2.183071368573E-01 -3.519224549840E-01
    221 F   1 H    -4.670990765912E-01  4.297704081587E-01  2.816928631427E-01
    222 F   1 H     2.816928631427E-01 -4.670990765912E-01  4.297704081587E-01
    223 F   1 H    -3.519224549840E-01  2.512080602661E-01  2.183071368573E-01
    224 F   1 H    -1.031305152501E-01 -3.290092340880E-02  2.487919397339E-01
    225 F   1 H    -3.290092340880E-02  2.487919397339E-01 -1.031305152501E-01
    226 F   1 H    -3.968694847499E-01 -1.480775450160E-01  7.022959184133E-02
    227 F   1 H    -1.480775450160E-01  7.022959184133E-02 -3.968694847499E-01
    228 F   1 H     2.183071368573E-01 -3.519224549840E-01  2.512080602661E-01
    229 F   1 H    -2.183071368573E-01 -7.022959184133E-02  3.290092340880E-02
    230 F   1 H     3.968694847499E-01 -2.512080602661E-01  4.670990765912E-01
    231 F   1 H     1.031305152501E-01 -4.297704081587E-01  3.519224549840E-01
    232 F   1 H    -2.816928631427E-01 -2.487919397339E-01  1.480775450160E-01
    233 F   1 H    -7.022959184133E-02  3.290092340880E-02 -2.183071368573E-01
    234 F   1 H     3.290092340880E-02 -2.183071368573E-01 -7.022959184133E-02
    235 F   1 H    -2.487919397339E-01  1.480775450160E-01 -2.816928631427E-01
    236 F   1 H     4.670990765912E-01  3.968694847499E-01 -2.512080602661E-01
    237 F   1 H    -2.512080602661E-01  4.670990765912E-01  3.968694847499E-01
    238 F   1 H     3.519224549840E-01  1.031305152501E-01 -4.297704081587E-01
    239 F   1 H    -4.297704081587E-01  3.519224549840E-01  1.031305152501E-01
    240 F   1 H     1.480775450160E-01 -2.816928631427E-01 -2.487919397339E-01
    241 T   6 C     4.109493999920E-01  2.865675808572E-01 -4.501661564810E-01
    242 F   6 C     2.367337373382E-01 -1.388844435270E-01 -4.983384351900E-02
    243 F   6 C     8.905060000796E-02 -3.611155564730E-01 -1.243818191348E-01
    244 F   6 C     2.632662626618E-01  2.134324191428E-01 -3.756181808652E-01
    245 F   6 C    -4.501661564810E-01  4.109493999920E-01  2.865675808572E-01
    246 F   6 C     2.865675808572E-01 -4.501661564810E-01  4.109493999920E-01
    247 F   6 C    -3.756181808652E-01  2.632662626618E-01  2.134324191428E-01
    248 F   6 C    -1.388844435270E-01 -4.983384351900E-02  2.367337373382E-01
    249 F   6 C    -4.983384351900E-02  2.367337373382E-01 -1.388844435270E-01
    250 F   6 C    -3.611155564730E-01 -1.243818191348E-01  8.905060000796E-02
    251 F   6 C    -1.243818191348E-01  8.905060000796E-02 -3.611155564730E-01
    252 F   6 C     2.134324191428E-01 -3.756181808652E-01  2.632662626618E-01
    253 F   6 C    -2.134324191428E-01 -8.905060000796E-02  4.983384351900E-02
    254 F   6 C     3.611155564730E-01 -2.632662626618E-01  4.501661564810E-01
    255 F   6 C     1.388844435270E-01 -4.109493999920E-01  3.756181808652E-01
    256 F   6 C    -2.865675808572E-01 -2.367337373382E-01  1.243818191348E-01
    257 F   6 C    -8.905060000796E-02  4.983384351900E-02 -2.134324191428E-01
    258 F   6 C     4.983384351900E-02 -2.134324191428E-01 -8.905060000796E-02
    259 F   6 C    -2.367337373382E-01  1.243818191348E-01 -2.865675808572E-01
    260 F   6 C     4.501661564810E-01  3.611155564730E-01 -2.632662626618E-01
    261 F   6 C    -2.632662626618E-01  4.501661564810E-01  3.611155564730E-01
    262 F   6 C     3.756181808652E-01  1.388844435270E-01 -4.109493999920E-01
    263 F   6 C    -4.109493999920E-01  3.756181808652E-01  1.388844435270E-01
    264 F   6 C     1.243818191348E-01 -2.865675808572E-01 -2.367337373382E-01
    265 T   6 C     3.674537324640E-01  3.187142428045E-01 -4.326480029115E-01
    266 F   6 C     2.513622457160E-01 -1.998982646245E-01 -6.735199708850E-02
    267 F   6 C     1.325462675361E-01 -3.001017353755E-01 -4.873948965950E-02
    268 F   6 C     2.486377542840E-01  1.812857571955E-01 -4.512605103405E-01
    269 F   6 C    -4.326480029115E-01  3.674537324639E-01  3.187142428044E-01
    270 F   6 C     3.187142428045E-01 -4.326480029115E-01  3.674537324639E-01
    271 F   6 C    -4.512605103405E-01  2.486377542840E-01  1.812857571955E-01
    272 F   6 C    -1.998982646246E-01 -6.735199708850E-02  2.513622457160E-01
    273 F   6 C    -6.735199708850E-02  2.513622457160E-01 -1.998982646245E-01
    274 F   6 C    -3.001017353755E-01 -4.873948965950E-02  1.325462675361E-01
    275 F   6 C    -4.873948965950E-02  1.325462675361E-01 -3.001017353755E-01
    276 F   6 C     1.812857571956E-01 -4.512605103405E-01  2.486377542840E-01
    277 F   6 C    -1.812857571956E-01 -1.325462675361E-01  6.735199708850E-02
    278 F   6 C     3.001017353755E-01 -2.486377542841E-01  4.326480029115E-01
    279 F   6 C     1.998982646245E-01 -3.674537324639E-01  4.512605103405E-01
    280 F   6 C    -3.187142428045E-01 -2.513622457160E-01  4.873948965950E-02
    281 F   6 C    -1.325462675361E-01  6.735199708850E-02 -1.812857571956E-01
    282 F   6 C     6.735199708850E-02 -1.812857571956E-01 -1.325462675361E-01
    283 F   6 C    -2.513622457160E-01  4.873948965950E-02 -3.187142428045E-01
    284 F   6 C     4.326480029115E-01  3.001017353754E-01 -2.486377542840E-01
    285 F   6 C    -2.486377542840E-01  4.326480029115E-01  3.001017353755E-01
    286 F   6 C     4.512605103405E-01  1.998982646245E-01 -3.674537324640E-01
    287 F   6 C    -3.674537324639E-01  4.512605103405E-01  1.998982646245E-01
    288 F   6 C     4.873948965950E-02 -3.187142428045E-01 -2.513622457160E-01
    289 T   6 C     3.617834683428E-01  2.975178457309E-01 -4.083250449245E-01
    290 F   6 C     2.058428906554E-01 -2.298914867327E-01 -9.167495507550E-02
    291 F   6 C     1.382165316572E-01 -2.701085132673E-01 -6.426562261190E-02
    292 F   6 C     2.941571093446E-01  2.024821542691E-01 -4.357343773881E-01
    293 F   6 C    -4.083250449245E-01  3.617834683428E-01  2.975178457309E-01
    294 F   6 C     2.975178457309E-01 -4.083250449245E-01  3.617834683428E-01
    295 F   6 C    -4.357343773881E-01  2.941571093446E-01  2.024821542691E-01
    296 F   6 C    -2.298914867327E-01 -9.167495507550E-02  2.058428906554E-01
    297 F   6 C    -9.167495507550E-02  2.058428906554E-01 -2.298914867327E-01
    298 F   6 C    -2.701085132673E-01 -6.426562261190E-02  1.382165316572E-01
    299 F   6 C    -6.426562261190E-02  1.382165316572E-01 -2.701085132673E-01
    300 F   6 C     2.024821542691E-01 -4.357343773881E-01  2.941571093446E-01
    301 F   6 C    -2.024821542691E-01 -1.382165316572E-01  9.167495507550E-02
    302 F   6 C     2.701085132673E-01 -2.941571093446E-01  4.083250449245E-01
    303 F   6 C     2.298914867327E-01 -3.617834683428E-01  4.357343773881E-01
    304 F   6 C    -2.975178457309E-01 -2.058428906554E-01  6.426562261190E-02
    305 F   6 C    -1.382165316572E-01  9.167495507550E-02 -2.024821542691E-01
    306 F   6 C     9.167495507550E-02 -2.024821542691E-01 -1.382165316572E-01
    307 F   6 C    -2.058428906554E-01  6.426562261190E-02 -2.975178457309E-01
    308 F   6 C     4.083250449245E-01  2.701085132673E-01 -2.941571093446E-01
    309 F   6 C    -2.941571093446E-01  4.083250449245E-01  2.701085132673E-01
    310 F   6 C     4.357343773881E-01  2.298914867327E-01 -3.617834683428E-01
    311 F   6 C    -3.617834683428E-01  4.357343773881E-01  2.298914867327E-01
    312 F   6 C     6.426562261190E-02 -2.975178457309E-01 -2.058428906554E-01
    313 T   6 C     3.815588383411E-01  2.712983515311E-01 -4.035638463802E-01
    314 F   6 C     1.748621979113E-01 -2.148773152787E-01 -9.643615361980E-02
    315 F   6 C     1.184411616590E-01 -2.851226847213E-01 -1.102604868100E-01
    316 F   6 C     3.251378020887E-01  2.287016484690E-01 -3.897395131900E-01
    317 F   6 C    -4.035638463802E-01  3.815588383410E-01  2.712983515310E-01
    318 F   6 C     2.712983515311E-01 -4.035638463802E-01  3.815588383410E-01
    319 F   6 C    -3.897395131900E-01  3.251378020887E-01  2.287016484690E-01
    320 F   6 C    -2.148773152787E-01 -9.643615361980E-02  1.748621979113E-01
    321 F   6 C    -9.643615361980E-02  1.748621979113E-01 -2.148773152787E-01
    322 F   6 C    -2.851226847213E-01 -1.102604868100E-01  1.184411616590E-01
    323 F   6 C    -1.102604868100E-01  1.184411616590E-01 -2.851226847213E-01
    324 F   6 C     2.287016484690E-01 -3.897395131900E-01  3.251378020887E-01
    325 F   6 C    -2.287016484690E-01 -1.184411616590E-01  9.643615361980E-02
    326 F   6 C     2.851226847213E-01 -3.251378020887E-01  4.035638463802E-01
    327 F   6 C     2.148773152788E-01 -3.815588383410E-01  3.897395131900E-01
    328 F   6 C    -2.712983515311E-01 -1.748621979113E-01  1.102604868100E-01
    329 F   6 C    -1.184411616590E-01  9.643615361980E-02 -2.287016484690E-01
    330 F   6 C     9.643615361980E-02 -2.287016484690E-01 -1.184411616590E-01
    331 F   6 C    -1.748621979113E-01  1.102604868100E-01 -2.712983515311E-01
    332 F   6 C     4.035638463802E-01  2.851226847213E-01 -3.251378020887E-01
    333 F   6 C    -3.251378020887E-01  4.035638463802E-01  2.851226847213E-01
    334 F   6 C     3.897395131900E-01  2.148773152787E-01 -3.815588383410E-01
    335 F   6 C    -3.815588383410E-01  3.897395131900E-01  2.148773152787E-01
    336 F   6 C     1.102604868100E-01 -2.712983515311E-01 -1.748621979113E-01
    337 T   1 H     4.201345190544E-01  2.443453883240E-01 -4.232509923780E-01
    338 F   1 H     1.675963807020E-01 -1.566144885676E-01 -7.674900762200E-02
    339 F   1 H     7.986548094558E-02 -3.433855114324E-01 -1.757891307304E-01
    340 F   1 H     3.324036192980E-01  2.556546116760E-01 -3.242108692696E-01
    341 F   1 H    -4.232509923780E-01  4.201345190544E-01  2.443453883240E-01
    342 F   1 H     2.443453883240E-01 -4.232509923780E-01  4.201345190544E-01
    343 F   1 H    -3.242108692696E-01  3.324036192980E-01  2.556546116760E-01
    344 F   1 H    -1.566144885676E-01 -7.674900762200E-02  1.675963807020E-01
    345 F   1 H    -7.674900762200E-02  1.675963807020E-01 -1.566144885676E-01
    346 F   1 H    -3.433855114324E-01 -1.757891307304E-01  7.986548094558E-02
    347 F   1 H    -1.757891307304E-01  7.986548094558E-02 -3.433855114324E-01
    348 F   1 H     2.556546116760E-01 -3.242108692696E-01  3.324036192980E-01
    349 F   1 H    -2.556546116760E-01 -7.986548094558E-02  7.674900762200E-02
    350 F   1 H     3.433855114324E-01 -3.324036192980E-01  4.232509923780E-01
    351 F   1 H     1.566144885676E-01 -4.201345190544E-01  3.242108692696E-01
    352 F   1 H    -2.443453883240E-01 -1.675963807020E-01  1.757891307304E-01
    353 F   1 H    -7.986548094558E-02  7.674900762200E-02 -2.556546116760E-01
    354 F   1 H     7.674900762200E-02 -2.556546116760E-01 -7.986548094558E-02
    355 F   1 H    -1.675963807020E-01  1.757891307304E-01 -2.443453883240E-01
    356 F   1 H     4.232509923780E-01  3.433855114324E-01 -3.324036192980E-01
    357 F   1 H    -3.324036192980E-01  4.232509923780E-01  3.433855114324E-01
    358 F   1 H     3.242108692696E-01  1.566144885676E-01 -4.201345190544E-01
    359 F   1 H    -4.201345190544E-01  3.242108692696E-01  1.566144885676E-01
    360 F   1 H     1.757891307304E-01 -2.443453883240E-01 -1.675963807020E-01
    361 T   1 H     3.411133867133E-01  3.002985376013E-01 -3.931564262652E-01
    362 F   1 H     1.934549638665E-01 -2.657301870215E-01 -1.068435737348E-01
    363 F   1 H     1.588866132868E-01 -2.342698129785E-01 -4.081484911200E-02
    364 F   1 H     3.065450361335E-01  1.997014623987E-01 -4.591851508880E-01
    365 F   1 H    -3.931564262652E-01  3.411133867132E-01  3.002985376013E-01
    366 F   1 H     3.002985376012E-01 -3.931564262652E-01  3.411133867132E-01
    367 F   1 H    -4.591851508880E-01  3.065450361335E-01  1.997014623988E-01
    368 F   1 H    -2.657301870215E-01 -1.068435737348E-01  1.934549638665E-01
    369 F   1 H    -1.068435737348E-01  1.934549638665E-01 -2.657301870215E-01
    370 F   1 H    -2.342698129785E-01 -4.081484911200E-02  1.588866132868E-01
    371 F   1 H    -4.081484911200E-02  1.588866132868E-01 -2.342698129785E-01
    372 F   1 H     1.997014623988E-01 -4.591851508880E-01  3.065450361335E-01
    373 F   1 H    -1.997014623988E-01 -1.588866132868E-01  1.068435737348E-01
    374 F   1 H     2.342698129785E-01 -3.065450361335E-01  3.931564262652E-01
    375 F   1 H     2.657301870215E-01 -3.411133867132E-01  4.591851508880E-01
    376 F   1 H    -3.002985376013E-01 -1.934549638665E-01  4.081484911200E-02
    377 F   1 H    -1.588866132868E-01  1.068435737348E-01 -1.997014623988E-01
    378 F   1 H     1.068435737348E-01 -1.997014623988E-01 -1.588866132868E-01
    379 F   1 H    -1.934549638665E-01  4.081484911200E-02 -3.002985376013E-01
    380 F   1 H     3.931564262652E-01  2.342698129785E-01 -3.065450361335E-01
    381 F   1 H    -3.065450361335E-01  3.931564262652E-01  2.342698129785E-01
    382 F   1 H     4.591851508880E-01  2.657301870215E-01 -3.411133867132E-01
    383 F   1 H    -3.411133867132E-01  4.591851508880E-01  2.657301870215E-01
    384 F   1 H     4.081484911200E-02 -3.002985376013E-01 -1.934549638665E-01
    385 T   6 C     3.923297638905E-01  3.136729411292E-01 -4.539723665791E-01
    386 F   6 C     2.676453077083E-01 -1.536978695304E-01 -4.602763342090E-02
    387 F   6 C     1.076702361095E-01 -3.463021304696E-01 -7.865682276130E-02
    388 F   6 C     2.323546922917E-01  1.863270588708E-01 -4.213431772387E-01
    389 F   6 C    -4.539723665791E-01  3.923297638905E-01  3.136729411292E-01
    390 F   6 C     3.136729411292E-01 -4.539723665791E-01  3.923297638905E-01
    391 F   6 C    -4.213431772387E-01  2.323546922917E-01  1.863270588708E-01
    392 F   6 C    -1.536978695304E-01 -4.602763342090E-02  2.676453077083E-01
    393 F   6 C    -4.602763342090E-02  2.676453077083E-01 -1.536978695304E-01
    394 F   6 C    -3.463021304696E-01 -7.865682276130E-02  1.076702361095E-01
    395 F   6 C    -7.865682276130E-02  1.076702361095E-01 -3.463021304696E-01
    396 F   6 C     1.863270588708E-01 -4.213431772387E-01  2.323546922917E-01
    397 F   6 C    -1.863270588708E-01 -1.076702361095E-01  4.602763342090E-02
    398 F   6 C     3.463021304696E-01 -2.323546922917E-01  4.539723665791E-01
    399 F   6 C     1.536978695304E-01 -3.923297638905E-01  4.213431772387E-01
    400 F   6 C    -3.136729411292E-01 -2.676453077083E-01  7.865682276130E-02
    401 F   6 C    -1.076702361095E-01  4.602763342090E-02 -1.863270588708E-01
    402 F   6 C     4.602763342090E-02 -1.863270588708E-01 -1.076702361095E-01
    403 F   6 C    -2.676453077083E-01  7.865682276130E-02 -3.136729411292E-01
    404 F   6 C     4.539723665791E-01  3.463021304696E-01 -2.323546922917E-01
    405 F   6 C    -2.323546922917E-01  4.539723665791E-01  3.463021304696E-01
    406 F   6 C     4.213431772387E-01  1.536978695304E-01 -3.923297638905E-01
    407 F   6 C    -3.923297638905E-01  4.213431772387E-01  1.536978695304E-01
    408 F   6 C     7.865682276130E-02 -3.136729411292E-01 -2.676453077083E-01
    409 T   6 C     4.056882411397E-01  2.656352007519E-01 -4.253433638226E-01
    410 F   6 C     1.909785645745E-01 -1.689683950377E-01 -7.465663617740E-02
    411 F   6 C     9.431175886031E-02 -3.310316049623E-01 -1.400530403878E-01
    412 F   6 C     3.090214354255E-01  2.343647992481E-01 -3.599469596122E-01
    413 F   6 C    -4.253433638226E-01  4.056882411397E-01  2.656352007519E-01
    414 F   6 C     2.656352007519E-01 -4.253433638226E-01  4.056882411397E-01
    415 F   6 C    -3.599469596122E-01  3.090214354255E-01  2.343647992481E-01
    416 F   6 C    -1.689683950377E-01 -7.465663617740E-02  1.909785645745E-01
    417 F   6 C    -7.465663617740E-02  1.909785645745E-01 -1.689683950377E-01
    418 F   6 C    -3.310316049623E-01 -1.400530403878E-01  9.431175886031E-02
    419 F   6 C    -1.400530403878E-01  9.431175886031E-02 -3.310316049623E-01
    420 F   6 C     2.343647992481E-01 -3.599469596122E-01  3.090214354255E-01
    421 F   6 C    -2.343647992481E-01 -9.431175886031E-02  7.465663617740E-02
    422 F   6 C     3.310316049623E-01 -3.090214354255E-01  4.253433638226E-01
    423 F   6 C     1.689683950377E-01 -4.056882411397E-01  3.599469596122E-01
    424 F   6 C    -2.656352007519E-01 -1.909785645745E-01  1.400530403878E-01
    425 F   6 C    -9.431175886031E-02  7.465663617740E-02 -2.343647992481E-01
    426 F   6 C     7.465663617740E-02 -2.343647992481E-01 -9.431175886031E-02
    427 F   6 C    -1.909785645745E-01  1.400530403878E-01 -2.656352007519E-01
    428 F   6 C     4.253433638226E-01  3.310316049623E-01 -3.090214354255E-01
    429 F   6 C    -3.090214354255E-01  4.253433638226E-01  3.310316049623E-01
    430 F   6 C     3.599469596122E-01  1.689683950377E-01 -4.056882411397E-01
    431 F   6 C    -4.056882411397E-01  3.599469596122E-01  1.689683950377E-01
    432 F   6 C     1.400530403878E-01 -2.656352007519E-01 -1.909785645745E-01
    433 T   1 H     3.520351426503E-01  3.390950774535E-01 -4.358269541914E-01
    434 F   1 H     2.749220316449E-01 -2.121379031583E-01 -6.417304580860E-02
    435 F   1 H     1.479648573497E-01 -2.878620968417E-01 -1.294006519680E-02
[...]
 285 C    6  0.000  0.000 -0.000  0.000 -0.000  0.000  0.000
 286 C    6  0.000  0.000 -0.000  0.000 -0.000  0.000  0.000
 287 C    6  0.000  0.000 -0.000  0.000 -0.000  0.000  0.000
 288 C    6  0.000  0.000 -0.000  0.000 -0.000  0.000  0.000
 289 C    6 -0.000 -0.000  0.000 -0.000  0.000 -0.000  0.000
 290 C    6 -0.000 -0.000  0.000 -0.000  0.000 -0.000  0.000
 291 C    6 -0.000 -0.000  0.000 -0.000  0.000 -0.000  0.000
 292 C    6 -0.000 -0.000  0.000 -0.000  0.000 -0.000  0.000
 293 C    6 -0.000 -0.000  0.000 -0.000  0.000 -0.000  0.000
 294 C    6 -0.000 -0.000  0.000 -0.000  0.000 -0.000  0.000
 295 C    6 -0.000 -0.000  0.000 -0.000  0.000 -0.000  0.000
 296 C    6 -0.000 -0.000  0.000 -0.000  0.000 -0.000  0.000
 297 C    6 -0.000 -0.000  0.000 -0.000  0.000 -0.000  0.000
 298 C    6 -0.000 -0.000  0.000 -0.000  0.000 -0.000  0.000
 299 C    6 -0.000 -0.000  0.000 -0.000  0.000 -0.000  0.000
 300 C    6 -0.000 -0.000  0.000 -0.000  0.000 -0.000  0.000
 301 C    6 -0.000 -0.000  0.000 -0.000  0.000 -0.000  0.000
 302 C    6 -0.000 -0.000  0.000 -0.000  0.000 -0.000  0.000
 303 C    6 -0.000 -0.000  0.000 -0.000  0.000 -0.000  0.000
 304 C    6 -0.000 -0.000  0.000 -0.000  0.000 -0.000  0.000
 305 C    6 -0.000 -0.000  0.000 -0.000  0.000 -0.000  0.000
 306 C    6 -0.000 -0.000  0.000 -0.000  0.000 -0.000  0.000
 307 C    6 -0.000 -0.000  0.000 -0.000  0.000 -0.000  0.000
 308 C    6 -0.000 -0.000  0.000 -0.000  0.000 -0.000  0.000
 309 C    6 -0.000 -0.000  0.000 -0.000  0.000 -0.000  0.000
 310 C    6 -0.000 -0.000  0.000 -0.000  0.000 -0.000  0.000
 311 C    6 -0.000 -0.000  0.000 -0.000  0.000 -0.000  0.000
 312 C    6 -0.000 -0.000  0.000 -0.000  0.000 -0.000  0.000
 313 C    6  0.000  0.000 -0.000  0.000 -0.000 -0.000 -0.000
 314 C    6  0.000  0.000 -0.000  0.000 -0.000 -0.000 -0.000
 315 C    6  0.000  0.000 -0.000  0.000 -0.000 -0.000 -0.000
 316 C    6  0.000  0.000 -0.000  0.000 -0.000 -0.000 -0.000
 317 C    6  0.000  0.000 -0.000  0.000 -0.000 -0.000 -0.000
 318 C    6  0.000  0.000 -0.000  0.000 -0.000 -0.000 -0.000
 319 C    6  0.000  0.000 -0.000  0.000 -0.000 -0.000 -0.000
 320 C    6  0.000  0.000 -0.000  0.000 -0.000 -0.000 -0.000
 321 C    6  0.000  0.000 -0.000  0.000 -0.000 -0.000 -0.000
 322 C    6  0.000  0.000 -0.000  0.000 -0.000 -0.000 -0.000
 323 C    6  0.000  0.000 -0.000  0.000 -0.000 -0.000 -0.000
 324 C    6  0.000  0.000 -0.000  0.000 -0.000 -0.000 -0.000
 325 C    6  0.000  0.000 -0.000  0.000 -0.000 -0.000 -0.000
 326 C    6  0.000  0.000 -0.000  0.000 -0.000 -0.000 -0.000
 327 C    6  0.000  0.000 -0.000  0.000 -0.000 -0.000 -0.000
 328 C    6  0.000  0.000 -0.000  0.000 -0.000 -0.000 -0.000
 329 C    6  0.000  0.000 -0.000  0.000 -0.000 -0.000 -0.000
 330 C    6  0.000  0.000 -0.000  0.000 -0.000 -0.000 -0.000
 331 C    6  0.000  0.000 -0.000  0.000 -0.000 -0.000 -0.000
 332 C    6  0.000  0.000 -0.000  0.000 -0.000 -0.000 -0.000
 333 C    6  0.000  0.000 -0.000  0.000 -0.000 -0.000 -0.000
 334 C    6  0.000  0.000 -0.000  0.000 -0.000 -0.000 -0.000
 335 C    6  0.000  0.000 -0.000  0.000 -0.000 -0.000 -0.000
 336 C    6  0.000  0.000 -0.000  0.000 -0.000 -0.000 -0.000
 337 H    1 -0.000 -0.000 -0.000 -0.000
 338 H    1 -0.000 -0.000 -0.000 -0.000
 339 H    1 -0.000 -0.000 -0.000 -0.000
 340 H    1 -0.000 -0.000 -0.000 -0.000
 341 H    1 -0.000 -0.000 -0.000 -0.000
 342 H    1 -0.000 -0.000 -0.000 -0.000
 343 H    1 -0.000 -0.000 -0.000 -0.000
 344 H    1 -0.000 -0.000 -0.000 -0.000
 345 H    1 -0.000 -0.000 -0.000 -0.000
 346 H    1 -0.000 -0.000 -0.000 -0.000
 347 H    1 -0.000 -0.000 -0.000 -0.000
 348 H    1 -0.000 -0.000 -0.000 -0.000
 349 H    1 -0.000 -0.000 -0.000 -0.000
 350 H    1 -0.000 -0.000 -0.000 -0.000
 351 H    1 -0.000 -0.000 -0.000 -0.000
 352 H    1 -0.000 -0.000 -0.000 -0.000
 353 H    1 -0.000 -0.000 -0.000 -0.000
 354 H    1 -0.000 -0.000 -0.000 -0.000
 355 H    1 -0.000 -0.000 -0.000 -0.000
 356 H    1 -0.000 -0.000 -0.000 -0.000
 357 H    1 -0.000 -0.000 -0.000 -0.000
 358 H    1 -0.000 -0.000 -0.000 -0.000
 359 H    1 -0.000 -0.000 -0.000 -0.000
 360 H    1 -0.000 -0.000 -0.000 -0.000
 361 H    1 -0.000 -0.000 -0.000 -0.000
 362 H    1 -0.000 -0.000 -0.000 -0.000
 363 H    1 -0.000 -0.000 -0.000 -0.000
 364 H    1 -0.000 -0.000 -0.000 -0.000
 365 H    1 -0.000 -0.000 -0.000 -0.000
 366 H    1 -0.000 -0.000 -0.000 -0.000
 367 H    1 -0.000 -0.000 -0.000 -0.000
 368 H    1 -0.000 -0.000 -0.000 -0.000
 369 H    1 -0.000 -0.000 -0.000 -0.000
 370 H    1 -0.000 -0.000 -0.000 -0.000
 371 H    1 -0.000 -0.000 -0.000 -0.000
 372 H    1 -0.000 -0.000 -0.000 -0.000
 373 H    1 -0.000 -0.000 -0.000 -0.000
 374 H    1 -0.000 -0.000 -0.000 -0.000
 375 H    1 -0.000 -0.000 -0.000 -0.000
 376 H    1 -0.000 -0.000 -0.000 -0.000
 377 H    1 -0.000 -0.000 -0.000 -0.000
 378 H    1 -0.000 -0.000 -0.000 -0.000
 379 H    1 -0.000 -0.000 -0.000 -0.000
 380 H    1 -0.000 -0.000 -0.000 -0.000
 381 H    1 -0.000 -0.000 -0.000 -0.000
 382 H    1 -0.000 -0.000 -0.000 -0.000
 383 H    1 -0.000 -0.000 -0.000 -0.000
 384 H    1 -0.000 -0.000 -0.000 -0.000
 385 C    6 -0.000 -0.000  0.000 -0.000  0.000 -0.000  0.000
 386 C    6 -0.000 -0.000  0.000 -0.000  0.000 -0.000  0.000
 387 C    6 -0.000 -0.000  0.000 -0.000  0.000 -0.000  0.000
 388 C    6 -0.000 -0.000  0.000 -0.000  0.000 -0.000  0.000
 389 C    6 -0.000 -0.000  0.000 -0.000  0.000 -0.000  0.000
 390 C    6 -0.000 -0.000  0.000 -0.000  0.000 -0.000  0.000
 391 C    6 -0.000 -0.000  0.000 -0.000  0.000 -0.000  0.000
 392 C    6 -0.000 -0.000  0.000 -0.000  0.000 -0.000  0.000
 393 C    6 -0.000 -0.000  0.000 -0.000  0.000 -0.000  0.000
 394 C    6 -0.000 -0.000  0.000 -0.000  0.000 -0.000  0.000
 395 C    6 -0.000 -0.000  0.000 -0.000  0.000 -0.000  0.000
 396 C    6 -0.000 -0.000  0.000 -0.000  0.000 -0.000  0.000
 397 C    6 -0.000 -0.000  0.000 -0.000  0.000 -0.000  0.000
 398 C    6 -0.000 -0.000  0.000 -0.000  0.000 -0.000  0.000
 399 C    6 -0.000 -0.000  0.000 -0.000  0.000 -0.000  0.000
 400 C    6 -0.000 -0.000  0.000 -0.000  0.000 -0.000  0.000
 401 C    6 -0.000 -0.000  0.000 -0.000  0.000 -0.000  0.000
 402 C    6 -0.000 -0.000  0.000 -0.000  0.000 -0.000  0.000
 403 C    6 -0.000 -0.000  0.000 -0.000  0.000 -0.000  0.000
 404 C    6 -0.000 -0.000  0.000 -0.000  0.000 -0.000  0.000
 405 C    6 -0.000 -0.000  0.000 -0.000  0.000 -0.000  0.000
 406 C    6 -0.000 -0.000  0.000 -0.000  0.000 -0.000  0.000
 407 C    6 -0.000 -0.000  0.000 -0.000  0.000 -0.000  0.000
 408 C    6 -0.000 -0.000  0.000 -0.000  0.000 -0.000  0.000
 409 C    6 -0.000  0.000 -0.000  0.000  0.000 -0.000 -0.000
 410 C    6 -0.000  0.000 -0.000  0.000  0.000 -0.000 -0.000
 411 C    6 -0.000  0.000 -0.000  0.000  0.000 -0.000 -0.000
 412 C    6 -0.000  0.000 -0.000  0.000  0.000 -0.000 -0.000
 413 C    6 -0.000  0.000 -0.000  0.000  0.000 -0.000 -0.000
 414 C    6 -0.000  0.000 -0.000  0.000  0.000 -0.000 -0.000
 415 C    6 -0.000  0.000 -0.000  0.000  0.000 -0.000 -0.000
 416 C    6 -0.000  0.000 -0.000  0.000  0.000 -0.000 -0.000
 417 C    6 -0.000  0.000 -0.000  0.000  0.000 -0.000 -0.000
 418 C    6 -0.000  0.000 -0.000  0.000  0.000 -0.000 -0.000
 419 C    6 -0.000  0.000 -0.000  0.000  0.000 -0.000 -0.000
 420 C    6 -0.000  0.000 -0.000  0.000  0.000 -0.000 -0.000
 421 C    6 -0.000  0.000 -0.000  0.000  0.000 -0.000 -0.000
 422 C    6 -0.000  0.000 -0.000  0.000  0.000 -0.000 -0.000
 423 C    6 -0.000  0.000 -0.000  0.000  0.000 -0.000 -0.000
 424 C    6 -0.000  0.000 -0.000  0.000  0.000 -0.000 -0.000
 425 C    6 -0.000  0.000 -0.000  0.000  0.000 -0.000 -0.000
 426 C    6 -0.000  0.000 -0.000  0.000  0.000 -0.000 -0.000
 427 C    6 -0.000  0.000 -0.000  0.000  0.000 -0.000 -0.000
 428 C    6 -0.000  0.000 -0.000  0.000  0.000 -0.000 -0.000
 429 C    6 -0.000  0.000 -0.000  0.000  0.000 -0.000 -0.000
 430 C    6 -0.000  0.000 -0.000  0.000  0.000 -0.000 -0.000
 431 C    6 -0.000  0.000 -0.000  0.000  0.000 -0.000 -0.000
 432 C    6 -0.000  0.000 -0.000  0.000  0.000 -0.000 -0.000
 433 H    1 -0.000  0.000 -0.000 -0.000
 434 H    1 -0.000  0.000 -0.000 -0.000
 435 H    1 -0.000  0.000 -0.000 -0.000
 436 H    1 -0.000  0.000 -0.000 -0.000
 437 H    1 -0.000  0.000 -0.000 -0.000
 438 H    1 -0.000  0.000 -0.000 -0.000
 439 H    1 -0.000  0.000 -0.000 -0.000
 440 H    1 -0.000  0.000 -0.000 -0.000
 441 H    1 -0.000  0.000 -0.000 -0.000
 442 H    1 -0.000  0.000 -0.000 -0.000
 443 H    1 -0.000  0.000 -0.000 -0.000
 444 H    1 -0.000  0.000 -0.000 -0.000
 445 H    1 -0.000  0.000 -0.000 -0.000
 446 H    1 -0.000  0.000 -0.000 -0.000
 447 H    1 -0.000  0.000 -0.000 -0.000
 448 H    1 -0.000  0.000 -0.000 -0.000
 449 H    1 -0.000  0.000 -0.000 -0.000
 450 H    1 -0.000  0.000 -0.000 -0.000
 451 H    1 -0.000  0.000 -0.000 -0.000
 452 H    1 -0.000  0.000 -0.000 -0.000
 453 H    1 -0.000  0.000 -0.000 -0.000
 454 H    1 -0.000  0.000 -0.000 -0.000
 455 H    1 -0.000  0.000 -0.000 -0.000
 456 H    1 -0.000  0.000 -0.000 -0.000
 457 C    6  0.000  0.000 -0.000  0.000  0.000  0.000  0.000
 458 C    6  0.000  0.000 -0.000  0.000  0.000  0.000  0.000
 459 C    6  0.000  0.000 -0.000  0.000  0.000  0.000  0.000
 460 C    6  0.000  0.000 -0.000  0.000  0.000  0.000  0.000
 461 C    6  0.000  0.000 -0.000  0.000  0.000  0.000  0.000
 462 C    6  0.000  0.000 -0.000  0.000  0.000  0.000  0.000

 OVERLAP POPULATION CONDENSED TO ATOMS FOR FIRST   6 NEIGHBORS

 ATOM A   1 O    ATOM B     CELL      R(AB)/AU R(AB)/ANG    OVPOP(AB)
                 49 C    (  0  0  0)     2.579     1.365     0.000
                173 B    (  0  0  0)     2.643     1.398     0.000
                150 C    (  0  0  0)     4.277     2.263     0.000
                101 O    (  0  0  0)     4.358     2.306    -0.000
                121 N    (  0  0  0)     4.492     2.377    -0.000
                389 C    (  0  0  0)     4.888     2.587    -0.000

 ATOM A  25 N    ATOM B     CELL      R(AB)/AU R(AB)/ANG    OVPOP(AB)
                150 C    (  0  0  0)     2.445     1.294     0.000
                193 C    (  0  0  0)     2.578     1.364     0.000
                101 O    (  0  0  0)     4.492     2.377    -0.000
                 49 C    (  0  0  0)     4.521     2.392    -0.000
                 73 C    (  0  0  0)     4.548     2.407     0.000
                 78 C    (  0  0  0)     4.596     2.432    -0.000

 ATOM A  49 C    ATOM B     CELL      R(AB)/AU R(AB)/ANG    OVPOP(AB)
                121 N    (  0  0  0)     2.445     1.294    -0.000
                  1 O    (  0  0  0)     2.579     1.365     0.000
                150 C    (  0  0  0)     2.671     1.413    -0.000
                173 B    (  0  0  0)     4.154     2.198    -0.000
                 78 C    (  0  0  0)     4.207     2.226     0.000
                101 O    (  0  0  0)     4.277     2.263     0.000

 ATOM A  73 C    ATOM B     CELL      R(AB)/AU R(AB)/ANG    OVPOP(AB)
                125 N    (  0  0  0)     2.578     1.364     0.000
                197 C    (  0  0  0)     2.674     1.415    -0.000
                193 C    (  0  0  0)     2.731     1.445    -0.000
                 53 C    (  0  0  0)     4.207     2.226     0.000
                 25 N    (  0  0  0)     4.548     2.407     0.000
                 29 N    (  0  0  0)     4.596     2.432    -0.000

 ATOM A  97 O    ATOM B     CELL      R(AB)/AU R(AB)/ANG    OVPOP(AB)
                149 C    (  0  0  0)     2.579     1.365    -0.000
                169 B    (  0  0  0)     2.643     1.398     0.000
                 54 C    (  0  0  0)     4.277     2.263     0.000
                  6 O    (  0  0  0)     4.358     2.306    -0.000
                 30 N    (  0  0  0)     4.492     2.377    -0.000
                385 C    (  0  0  0)     4.890     2.588     0.000

 ATOM A 121 N    ATOM B     CELL      R(AB)/AU R(AB)/ANG    OVPOP(AB)
                 49 C    (  0  0  0)     2.445     1.294    -0.000
                 78 C    (  0  0  0)     2.578     1.364     0.000
                  1 O    (  0  0  0)     4.492     2.377    -0.000
                150 C    (  0  0  0)     4.521     2.392    -0.000
                198 C    (  0  0  0)     4.548     2.407    -0.000
                193 C    (  0  0  0)     4.596     2.432     0.000

 ATOM A 145 C    ATOM B     CELL      R(AB)/AU R(AB)/ANG    OVPOP(AB)
                 29 N    (  0  0  0)     2.445     1.294     0.000
                102 O    (  0  0  0)     2.579     1.365    -0.000
                 53 C    (  0  0  0)     2.671     1.413    -0.000
                174 B    (  0  0  0)     4.153     2.198     0.000
                197 C    (  0  0  0)     4.207     2.226    -0.000
                  5 O    (  0  0  0)     4.277     2.263     0.000

 ATOM A 169 B    ATOM B     CELL      R(AB)/AU R(AB)/ANG    OVPOP(AB)
                 97 O    (  0  0  0)     2.643     1.398     0.000
                  6 O    (  0  0  0)     2.643     1.398     0.000
                385 C    (  0  0  0)     2.881     1.525    -0.000
                149 C    (  0  0  0)     4.153     2.198     0.000
                 54 C    (  0  0  0)     4.154     2.198    -0.000
                241 C    (  0  0  0)     4.806     2.543    -0.000

 ATOM A 193 C    ATOM B     CELL      R(AB)/AU R(AB)/ANG    OVPOP(AB)
                 25 N    (  0  0  0)     2.578     1.364     0.000
                 78 C    (  0  0  0)     2.674     1.415    -0.000
                 73 C    (  0  0  0)     2.731     1.445    -0.000
                150 C    (  0  0  0)     4.207     2.226    -0.000
                125 N    (  0  0  0)     4.548     2.407    -0.000
                121 N    (  0  0  0)     4.596     2.432     0.000

 ATOM A 217 H    ATOM B     CELL      R(AB)/AU R(AB)/ANG    OVPOP(AB)
                241 C    (  0  0  0)     2.059     1.090     0.000
                409 C    (  0  0  0)     4.064     2.150     0.000
                385 C    (  0  0  0)     4.065     2.151     0.000
                337 H    (  0  0  0)     4.670     2.471     0.000
                 97 O    (  0  0  0)     5.068     2.682    -0.000
                169 B    (  0  0  0)     5.169     2.736    -0.000

 ATOM A 241 C    ATOM B     CELL      R(AB)/AU R(AB)/ANG    OVPOP(AB)
                217 H    (  0  0  0)     2.059     1.090     0.000
                409 C    (  0  0  0)     2.631     1.392    -0.000
                385 C    (  0  0  0)     2.641     1.398     0.000
                337 H    (  0  0  0)     4.065     2.151    -0.000
                265 C    (  0  0  0)     4.541     2.403     0.000
                313 C    (  0  0  0)     4.573     2.420     0.000

 ATOM A 265 C    ATOM B     CELL      R(AB)/AU R(AB)/ANG    OVPOP(AB)
                433 H    (  0  0  0)     2.059     1.089    -0.000
                289 C    (  0  0  0)     2.618     1.386     0.000
                385 C    (  0  0  0)     2.651     1.403    -0.000
                361 H    (  0  0  0)     4.067     2.152    -0.000
                241 C    (  0  0  0)     4.541     2.403     0.000
                313 C    (  0  0  0)     4.587     2.427     0.000

 ATOM A 289 C    ATOM B     CELL      R(AB)/AU R(AB)/ANG    OVPOP(AB)
                361 H    (  0  0  0)     2.060     1.090    -0.000
                265 C    (  0  0  0)     2.618     1.386     0.000
                313 C    (  0  0  0)     2.654     1.404     0.000
                433 H    (  0  0  0)     4.059     2.148     0.000
                409 C    (  0  0  0)     4.544     2.405    -0.000
                356 H    (  0  0  0)     4.561     2.413     0.000

 ATOM A 313 C    ATOM B     CELL      R(AB)/AU R(AB)/ANG    OVPOP(AB)
                409 C    (  0  0  0)     2.636     1.395    -0.000
                289 C    (  0  0  0)     2.654     1.404     0.000
                461 C    (  0  0  0)     2.898     1.533    -0.000
                361 H    (  0  0  0)     4.067     2.152    -0.000
                337 H    (  0  0  0)     4.068     2.153     0.000
                241 C    (  0  0  0)     4.573     2.420     0.000

 ATOM A 337 H    ATOM B     CELL      R(AB)/AU R(AB)/ANG    OVPOP(AB)
                409 C    (  0  0  0)     2.056     1.088    -0.000
                241 C    (  0  0  0)     4.065     2.151    -0.000
                313 C    (  0  0  0)     4.068     2.153     0.000
                310 C    (  0  0  0)     4.561     2.413     0.000
                217 H    (  0  0  0)     4.670     2.471     0.000
                334 C    (  0  0  0)     4.697     2.486     0.000

 ATOM A 361 H    ATOM B     CELL      R(AB)/AU R(AB)/ANG    OVPOP(AB)
                289 C    (  0  0  0)     2.060     1.090    -0.000
                313 C    (  0  0  0)     4.067     2.152    -0.000
                265 C    (  0  0  0)     4.067     2.152    -0.000
                433 H    (  0  0  0)     4.687     2.480     0.000
                316 C    (  0  0  0)     4.814     2.548     0.000
                356 H    (  0  0  0)     4.831     2.556     0.000

 ATOM A 385 C    ATOM B     CELL      R(AB)/AU R(AB)/ANG    OVPOP(AB)
                241 C    (  0  0  0)     2.641     1.398     0.000
                265 C    (  0  0  0)     2.651     1.403    -0.000
                169 B    (  0  0  0)     2.881     1.525    -0.000
                217 H    (  0  0  0)     4.065     2.151     0.000
                433 H    (  0  0  0)     4.076     2.157    -0.000
                289 C    (  0  0  0)     4.579     2.423    -0.000

 ATOM A 409 C    ATOM B     CELL      R(AB)/AU R(AB)/ANG    OVPOP(AB)
                337 H    (  0  0  0)     2.056     1.088    -0.000
                241 C    (  0  0  0)     2.631     1.392    -0.000
                313 C    (  0  0  0)     2.636     1.395    -0.000
                217 H    (  0  0  0)     4.064     2.150     0.000
                289 C    (  0  0  0)     4.544     2.405    -0.000
                385 C    (  0  0  0)     4.593     2.430    -0.000

 ATOM A 433 H    ATOM B     CELL      R(AB)/AU R(AB)/ANG    OVPOP(AB)
                265 C    (  0  0  0)     2.059     1.089    -0.000
                289 C    (  0  0  0)     4.059     2.148     0.000
                385 C    (  0  0  0)     4.076     2.157    -0.000
                361 H    (  0  0  0)     4.687     2.480     0.000
                  6 O    (  0  0  0)     5.077     2.687    -0.000
                169 B    (  0  0  0)     5.184     2.743     0.000

 ATOM A 457 C    ATOM B     CELL      R(AB)/AU R(AB)/ANG    OVPOP(AB)
                320 C    (  0  0  0)     2.898     1.533    -0.000
                296 C    (  0  0  0)     4.761     2.520     0.000
                416 C    (  0  0  0)     4.877     2.581    -0.000
                368 H    (  0  0  0)     5.064     2.680    -0.000
                344 H    (  0  0  0)     5.293     2.801    -0.000
                272 C    (  0  0  0)     7.199     3.809     0.000
 EIGENVECTORS IN FORTRAN UNIT  8
 TTTTTTTTTTTTTTTTTTTTTTTTTTTTTT END         TELAPSE      344.93 TCPU      339.67
 MMMMM END         USED MEM(MB)     66.01 MAX MEM    237.16 TOT MEM      1584.32
 EEEEEEEEEE TERMINATION  DATE 28 04 2025 TIME 16:43:46.6
NODE    0 CPU TIME =       339.669
NODE    1 CPU TIME =       340.141
NODE    2 CPU TIME =       339.928
NODE    3 CPU TIME =       340.340
NODE    4 CPU TIME =       339.958
NODE    5 CPU TIME =       340.259
NODE    6 CPU TIME =       340.350
NODE    7 CPU TIME =       340.569
NODE    8 CPU TIME =       340.024
NODE    9 CPU TIME =       340.241
NODE   10 CPU TIME =       339.568
NODE   11 CPU TIME =       340.290
NODE   12 CPU TIME =       340.148
NODE   13 CPU TIME =       340.041
NODE   14 CPU TIME =       339.563
NODE   15 CPU TIME =       339.997
NODE   16 CPU TIME =       339.990
NODE   17 CPU TIME =       339.484
NODE   18 CPU TIME =       340.284
NODE   19 CPU TIME =       339.898
NODE   20 CPU TIME =       340.350
NODE   21 CPU TIME =       340.252
NODE   22 CPU TIME =       339.588
NODE   23 CPU TIME =       340.613
    TOTAL CPU TIME =      8161.544
