 PROCESS            8  OF           24  WORKING
 PROCESS           11  OF           24  WORKING
 PROCESS           12  OF           24  WORKING
 PROCESS           14  OF           24  WORKING
 PROCESS           17  OF           24  WORKING
 PROCESS           18  OF           24  WORKING
 PROCESS           19  OF           24  WORKING
 PROCESS           20  OF           24  WORKING
 PROCESS           22  OF           24  WORKING
 PROCESS           23  OF           24  WORKING
 PROCESS            0  OF           24  WORKING
 PROCESS            1  OF           24  WORKING
 PROCESS            2  OF           24  WORKING
 PROCESS            3  OF           24  WORKING
 PROCESS            4  OF           24  WORKING
 PROCESS            5  OF           24  WORKING
 PROCESS            6  OF           24  WORKING
 PROCESS            7  OF           24  WORKING
 PROCESS           10  OF           24  WORKING
 PROCESS           13  OF           24  WORKING
 PROCESS           15  OF           24  WORKING
 PROCESS           16  OF           24  WORKING
 PROCESS           21  OF           24  WORKING
 PROCESS            9  OF           24  WORKING

         
 *******************************************************************************
 *                                                                             *
 *                               CRYSTAL23                                     *
 *                      public : 1.0.1 - October 2022                          *
 *                       HTTP://WWW.CRYSTAL.UNITO.IT                           *
 *                                                                             *
 *                              MAIN AUTHORS                                   *
 *                                                                             *
 *  R. DOVESI(1,11), V.R. SAUNDERS(2), C. ROETTI(1,11), R. ORLANDO(1,11),      *
 *  C.M. ZICOVICH-WILSON(1,3), F. PASCALE(4), B. CIVALLERI(1,11),              *
 *  K. DOLL(5), N.M. HARRISON(6), I.J. BUSH(7), Ph. D'ARCO(8),                 *
 *  M. LLUNELL(9), M. CAUSA'(10), Y. NOEL(8), L. MASCHIO(1,11), A. ERBA(1,11)  *
 *  M. RE'RAT(14), S. CASASSA(1,11), B.G. SEARLE(2), J.K. DESMARAIS(1)         *
 *                                                                             *
 *        CONTRIBUTIONS TO THE CODE HAVE ALSO BEEN GIVEN BY                    *
 *                                                                             *
 *  M. FERRABONE(1,11), M. DE LA PIERRE(1,11), M. FERRERO(1,11),               *
 *  J. BAIMA(1,11), E. ALBANESE(1,11), M.F. PEINTINGER(12), R. BAST(13),       *
 *  B. KIRTMAN(15), V. LACIVITA(1,11), R. DEMICHELIS(1,16)                     *
 *  G. BRANDEBURG(17), S. SALUSTRO(1,11), G. SANSONE(1,11)                     *
 *  M.T. RUGGIERO(18), L.E. DAGA(1), L. DONA'(1), A. COSSARD(1)                *
 *                                                                             *
 * (1) THEORETICAL CHEMISTRY GROUP - UNIVERSITA' DI TORINO - TORINO (ITALY)    *
 * (2) SCIENTIFIC COMPUTING DEPARTMENT - STFC DARESBURY (UK)                   *
 * (3) UNIVERSIDAD AUTONOMA DEL ESTADO DE MORELOS - CUERNAVACA (MEXICO)        *
 * (4) UNIVERSITE' DE LORRAINE - NANCY (FRANCE)                                *
 * (5) UNIVERSITAET STUTTGART- STUTTGART (GERMANY)                             *
 * (6) IMPERIAL COLLEGE - LONDON (UK)                                          *
 * (7) SCIENTIFIC COMPUTING DEPARTMENT - STFC RAL (UK)                         *
 * (8) UPMC - SORBONNE UNIVERSITES - PARIS (FRANCE)                            *
 * (9) UNIVERSIDAD DE BARCELONA - BARCELONA (SPAIN)                            *
 *(10) UNIVERSITA' DI NAPOLI "FEDERICO II" - NAPOLI (ITALY)                    *
 *(11) NIS - NANOSTRUCTURED INTERFACES AND SURFACES - TORINO (ITALY)           *
 *(12) MPI FUER CHEMISCHE ENERGIEKONVERSION - MUELHEIM AN DER RUHR (GERMANY)   *
 *(13) UNIVERSITY OF TROMSO - TROMSO (NORWAY)                                  *
 *(14) UNIVERSITE' DE PAU ET DES PAYS DE L'ADOUR - PAU (FRANCE)                *
 *(15) UNIVERSITY OF CALIFORNIA SANTA BARBARA - SANTA BARBARA (USA)            *
 *(16) CURTIN UNIVERSITY - PERTH (AUSTRALIA)                                   *
 *(17) UNIVERSITY COLLEGE LONDON - LONDON (UK)                                 *
 *(18) UNIVERSITY OF VERMONT - BURLINGTON (USA)                                *
 *                                                                             *
 *******************************************************************************
 EEEEEEEEEE STARTING  DATE 28 04 2025 TIME 16:38:03.6
 PandaNiCOF102_sym                                                               

 CRYSTAL CALCULATION
 (INPUT ACCORDING TO THE INTERNATIONAL TABLES FOR X-RAY CRYSTALLOGRAPHY)
 CRYSTAL FAMILY                       :  CUBIC       
 CRYSTAL CLASS  (GROTH - 1921)        :  CUBIC HEXAKISTETRAHEDRAL             

 SPACE GROUP (NONCENTROSYMMETRIC)     :  I -4 3 D        

 LATTICE PARAMETERS  (ANGSTROMS AND DEGREES) - CONVENTIONAL CELL
        A           B           C        ALPHA        BETA       GAMMA
    42.30497    42.30497    42.30497    90.00000    90.00000    90.00000


 NUMBER OF IRREDUCIBLE ATOMS IN THE CONVENTIONAL CELL:   23

 INPUT COORDINATES

 ATOM AT. N.              COORDINATES
   1   8     1.118360667790E-01  2.424727566966E-01  2.621642434700E-01
   2   7     1.740367657456E-01  1.882873584553E-01  2.609440681352E-01
   3   6     1.380672186813E-01  2.303534537132E-01  2.494430720091E-01
   4   6     2.157227929718E-01  1.791645756630E-01  2.234124551363E-01
   5   8     2.015215654320E-01  2.932115328806E-01  1.299901119192E-01
   6   7     1.524056977417E-01  2.397502417457E-01  2.237870650440E-01
   7   6     2.679382698374E-01  1.493432283879E-01  2.049184590965E-01
   8   5     2.246921858980E-01  2.899299331302E-01  1.064903061897E-01
   9   6     1.888329776061E-01  1.971928752669E-01  2.337804552273E-01
  10   1     1.892980277780E-01  3.409168037551E-01  8.738739036597E-02
  11   6     2.100706298463E-01  3.373431971632E-01  7.259555960018E-02
  12   6     2.569333136574E-01  3.077598053051E-01  5.945783652508E-02
  13   6     2.623617426724E-01  3.278062258926E-01  3.415349643028E-02
  14   6     2.420627715121E-01  3.533424334794E-01  2.797229610217E-02
  15   1     1.991258862776E-01  3.766447632263E-01  4.233770949320E-02
  16   1     2.822543794619E-01  3.236075332694E-01  1.832842574660E-02
  17   6     2.306103157390E-01  3.122894496259E-01  7.916121324808E-02
  18   6     2.156583894649E-01  3.575813630324E-01  4.728165710118E-02
  19   1     2.730287122105E-01  2.881990765056E-01  6.412891844691E-02
  20  28    -1.146535296034E-01 -5.027148089766E-02  2.127209010942E-02
  21  17    -1.310138367071E-01 -8.675738377991E-02 -8.914154681725E-03
  22  17    -1.059280857960E-01 -1.735612063454E-02  5.767641347904E-02
  23   6     1.250000000000E-01 -2.211120139985E-17 -2.500000000000E-01

 *******************************************************************************

 << INFORMATION >>: FROM NOW ON, ALL COORDINATES REFER TO THE PRIMITIVE CELL

 *******************************************************************************

 LATTICE PARAMETERS  (ANGSTROMS AND DEGREES) - PRIMITIVE CELL
       A          B          C        ALPHA      BETA     GAMMA        VOLUME
   36.63718   36.63718   36.63718   109.47122 109.47122 109.47122  37856.814479

 COORDINATES OF THE EQUIVALENT ATOMS (FRACTIONAL UNITS)

 N. ATOM EQUIV AT. N.          X                  Y                  Z

   1   1   1    8 O    -4.95362999833E-01  3.74000310249E-01  3.54308823476E-01
   2   1   2    8 O    -4.80308513227E-01  1.50328176691E-01  1.45691176524E-01
   3   1   3    8 O    -4.63700016660E-03  3.49671823309E-01 -1.30636689918E-01
   4   1   4    8 O    -1.96914867734E-02  1.25999689751E-01 -3.69363310082E-01
   5   1   5    8 O     3.54308823476E-01 -4.95362999833E-01  3.74000310249E-01
   6   1   6    8 O     3.74000310249E-01  3.54308823476E-01 -4.95362999833E-01
   7   1   7    8 O    -3.69363310082E-01 -1.96914867734E-02  1.25999689751E-01
   8   1   8    8 O     1.50328176691E-01  1.45691176524E-01 -4.80308513227E-01
   9   1   9    8 O     1.45691176524E-01 -4.80308513227E-01  1.50328176691E-01
  10   1  10    8 O     3.49671823309E-01 -1.30636689918E-01 -4.63700016660E-03
  11   1  11    8 O    -1.30636689918E-01 -4.63700016660E-03  3.49671823309E-01
  12   1  12    8 O     1.25999689751E-01 -3.69363310082E-01 -1.96914867734E-02
  13   1  13    8 O    -1.25999689751E-01  4.63700016660E-03 -1.45691176524E-01
  14   1  14    8 O    -3.49671823309E-01  1.96914867734E-02 -3.54308823476E-01
  15   1  15    8 O    -1.50328176691E-01  4.95362999833E-01  3.69363310082E-01
  16   1  16    8 O    -3.74000310249E-01  4.80308513227E-01  1.30636689918E-01
  17   1  17    8 O     4.63700016660E-03 -1.45691176524E-01 -1.25999689751E-01
  18   1  18    8 O    -1.45691176524E-01 -1.25999689751E-01  4.63700016660E-03
  19   1  19    8 O     4.80308513227E-01  1.30636689918E-01 -3.74000310249E-01
  20   1  20    8 O    -3.54308823476E-01 -3.49671823309E-01  1.96914867734E-02
  21   1  21    8 O     1.96914867734E-02 -3.54308823476E-01 -3.49671823309E-01
  22   1  22    8 O     3.69363310082E-01 -1.50328176691E-01  4.95362999833E-01
  23   1  23    8 O     4.95362999833E-01  3.69363310082E-01 -1.50328176691E-01
  24   1  24    8 O     1.30636689918E-01 -3.74000310249E-01  4.80308513227E-01

  25   2   1    7 N     4.49231426590E-01  4.34980833881E-01  3.62324124201E-01
  26   2   2    7 N    -4.27343290320E-01  8.69073023896E-02  1.37675875799E-01
  27   2   3    7 N     5.07685734095E-02  4.13092697610E-01 -1.42505927097E-02
  28   2   4    7 N    -7.26567096799E-02  6.50191661192E-02 -4.85749407290E-01
  29   2   5    7 N     3.62324124201E-01  4.49231426590E-01  4.34980833881E-01
  30   2   6    7 N     4.34980833881E-01  3.62324124201E-01  4.49231426590E-01
  31   2   7    7 N    -4.85749407290E-01 -7.26567096799E-02  6.50191661192E-02
  32   2   8    7 N     8.69073023896E-02  1.37675875799E-01 -4.27343290320E-01
  33   2   9    7 N     1.37675875799E-01 -4.27343290320E-01  8.69073023896E-02
  34   2  10    7 N     4.13092697610E-01 -1.42505927097E-02  5.07685734095E-02
  35   2  11    7 N    -1.42505927097E-02  5.07685734095E-02  4.13092697610E-01
  36   2  12    7 N     6.50191661192E-02 -4.85749407290E-01 -7.26567096799E-02
  37   2  13    7 N    -6.50191661192E-02 -5.07685734095E-02 -1.37675875799E-01
  38   2  14    7 N    -4.13092697610E-01  7.26567096799E-02 -3.62324124201E-01
  39   2  15    7 N    -8.69073023896E-02 -4.49231426590E-01  4.85749407290E-01
  40   2  16    7 N    -4.34980833881E-01  4.27343290320E-01  1.42505927097E-02
  41   2  17    7 N    -5.07685734095E-02 -1.37675875799E-01 -6.50191661192E-02
  42   2  18    7 N    -1.37675875799E-01 -6.50191661192E-02 -5.07685734095E-02
  43   2  19    7 N     4.27343290320E-01  1.42505927097E-02 -4.34980833881E-01
  44   2  20    7 N    -3.62324124201E-01 -4.13092697610E-01  7.26567096799E-02
  45   2  21    7 N     7.26567096799E-02 -3.62324124201E-01 -4.13092697610E-01
  46   2  22    7 N     4.85749407290E-01 -8.69073023896E-02 -4.49231426590E-01
  47   2  23    7 N    -4.49231426590E-01  4.85749407290E-01 -8.69073023896E-02
  48   2  24    7 N     1.42505927097E-02 -4.34980833881E-01  4.27343290320E-01

  49   3   1    6 C     4.79796525722E-01  3.87510290690E-01  3.68420672395E-01
  50   3   2    6 C    -4.80910381704E-01  1.11375853328E-01  1.31579327605E-01
  51   3   3    6 C     2.02034742777E-02  3.88624146672E-01 -9.22862350319E-02
  52   3   4    6 C    -1.90896182959E-02  1.12489709310E-01 -4.07713764968E-01
  53   3   5    6 C     3.68420672395E-01  4.79796525722E-01  3.87510290690E-01
  54   3   6    6 C     3.87510290690E-01  3.68420672395E-01  4.79796525722E-01
  55   3   7    6 C    -4.07713764968E-01 -1.90896182959E-02  1.12489709310E-01
  56   3   8    6 C     1.11375853328E-01  1.31579327605E-01 -4.80910381704E-01
  57   3   9    6 C     1.31579327605E-01 -4.80910381704E-01  1.11375853328E-01
  58   3  10    6 C     3.88624146672E-01 -9.22862350319E-02  2.02034742777E-02
  59   3  11    6 C    -9.22862350319E-02  2.02034742777E-02  3.88624146672E-01
  60   3  12    6 C     1.12489709310E-01 -4.07713764968E-01 -1.90896182959E-02
  61   3  13    6 C    -1.12489709310E-01 -2.02034742777E-02 -1.31579327605E-01
  62   3  14    6 C    -3.88624146672E-01  1.90896182959E-02 -3.68420672395E-01
  63   3  15    6 C    -1.11375853328E-01 -4.79796525722E-01  4.07713764968E-01
  64   3  16    6 C    -3.87510290690E-01  4.80910381704E-01  9.22862350319E-02
  65   3  17    6 C    -2.02034742777E-02 -1.31579327605E-01 -1.12489709310E-01
  66   3  18    6 C    -1.31579327605E-01 -1.12489709310E-01 -2.02034742777E-02
  67   3  19    6 C     4.80910381704E-01  9.22862350319E-02 -3.87510290690E-01
  68   3  20    6 C    -3.68420672395E-01 -3.88624146672E-01  1.90896182959E-02
  69   3  21    6 C     1.90896182959E-02 -3.68420672395E-01 -3.88624146672E-01
  70   3  22    6 C     4.07713764968E-01 -1.11375853328E-01 -4.79796525722E-01
  71   3  23    6 C    -4.79796525722E-01  4.07713764968E-01 -1.11375853328E-01
  72   3  24    6 C     9.22862350319E-02 -3.87510290690E-01  4.80910381704E-01

  73   4   1    6 C     4.02577030799E-01  4.39135248108E-01  3.94887368635E-01
  74   4   2    6 C    -4.55752120527E-01  7.68966216450E-03  1.05112631365E-01
  75   4   3    6 C     9.74229692007E-02  4.92310337835E-01  3.65582173088E-02
  76   4   4    6 C    -4.42478794733E-02  6.08647518919E-02  4.63441782691E-01
  77   4   5    6 C     3.94887368635E-01  4.02577030799E-01  4.39135248108E-01
  78   4   6    6 C     4.39135248108E-01  3.94887368635E-01  4.02577030799E-01
  79   4   7    6 C     4.63441782691E-01 -4.42478794733E-02  6.08647518919E-02
  80   4   8    6 C     7.68966216450E-03  1.05112631365E-01 -4.55752120527E-01
  81   4   9    6 C     1.05112631365E-01 -4.55752120527E-01  7.68966216450E-03
  82   4  10    6 C     4.92310337835E-01  3.65582173088E-02  9.74229692007E-02
  83   4  11    6 C     3.65582173088E-02  9.74229692007E-02  4.92310337835E-01
  84   4  12    6 C     6.08647518919E-02  4.63441782691E-01 -4.42478794733E-02
  85   4  13    6 C    -6.08647518919E-02 -9.74229692007E-02 -1.05112631365E-01
  86   4  14    6 C    -4.92310337835E-01  4.42478794733E-02 -3.94887368635E-01
  87   4  15    6 C    -7.68966216450E-03 -4.02577030799E-01 -4.63441782691E-01
  88   4  16    6 C    -4.39135248108E-01  4.55752120527E-01 -3.65582173088E-02
  89   4  17    6 C    -9.74229692007E-02 -1.05112631365E-01 -6.08647518919E-02
  90   4  18    6 C    -1.05112631365E-01 -6.08647518919E-02 -9.74229692007E-02
  91   4  19    6 C     4.55752120527E-01 -3.65582173088E-02 -4.39135248108E-01
  92   4  20    6 C    -3.94887368635E-01 -4.92310337835E-01  4.42478794733E-02
  93   4  21    6 C     4.42478794733E-02 -3.94887368635E-01 -4.92310337835E-01
  94   4  22    6 C    -4.63441782691E-01 -7.68966216450E-03 -4.02577030799E-01
  95   4  23    6 C    -4.02577030799E-01 -4.63441782691E-01 -7.68966216450E-03
  96   4  24    6 C    -3.65582173088E-02 -4.39135248108E-01  4.55752120527E-01

  97   5   1    8 O     4.23201644800E-01  3.31511677351E-01  4.94733098313E-01
  98   5   2    8 O     3.36778579039E-01 -7.15314535128E-02  5.26690168740E-03
  99   5   3    8 O     7.67983552002E-02 -4.28468546487E-01 -9.16899674486E-02
 100   5   4    8 O     1.63221420961E-01  1.68488322649E-01 -4.08310032551E-01
 101   5   5    8 O     4.94733098313E-01  4.23201644800E-01  3.31511677351E-01
 102   5   6    8 O     3.31511677351E-01  4.94733098313E-01  4.23201644800E-01
 103   5   7    8 O    -4.08310032551E-01  1.63221420961E-01  1.68488322649E-01
 104   5   8    8 O    -7.15314535128E-02  5.26690168740E-03  3.36778579039E-01
 105   5   9    8 O     5.26690168740E-03  3.36778579039E-01 -7.15314535128E-02
 106   5  10    8 O    -4.28468546487E-01 -9.16899674486E-02  7.67983552002E-02
 107   5  11    8 O    -9.16899674486E-02  7.67983552002E-02 -4.28468546487E-01
 108   5  12    8 O     1.68488322649E-01 -4.08310032551E-01  1.63221420961E-01
 109   5  13    8 O    -1.68488322649E-01 -7.67983552002E-02 -5.26690168740E-03
 110   5  14    8 O     4.28468546487E-01 -1.63221420961E-01 -4.94733098313E-01
 111   5  15    8 O     7.15314535128E-02 -4.23201644800E-01  4.08310032551E-01
 112   5  16    8 O    -3.31511677351E-01 -3.36778579039E-01  9.16899674486E-02
 113   5  17    8 O    -7.67983552002E-02 -5.26690168740E-03 -1.68488322649E-01
 114   5  18    8 O    -5.26690168740E-03 -1.68488322649E-01 -7.67983552002E-02
 115   5  19    8 O    -3.36778579039E-01  9.16899674486E-02 -3.31511677351E-01
 116   5  20    8 O    -4.94733098313E-01  4.28468546487E-01 -1.63221420961E-01
 117   5  21    8 O    -1.63221420961E-01 -4.94733098313E-01  4.28468546487E-01
 118   5  22    8 O     4.08310032551E-01  7.15314535128E-02 -4.23201644800E-01
 119   5  23    8 O    -4.23201644800E-01  4.08310032551E-01  7.15314535128E-02
 120   5  24    8 O     9.16899674486E-02 -3.31511677351E-01 -3.36778579039E-01

 121   6   1    7 N     4.63537306790E-01  3.76192762786E-01  3.92155939487E-01
 122   6   2    7 N     4.84036823298E-01  7.13813673023E-02  1.07844060513E-01
 123   6   3    7 N     3.64626932103E-02  4.28618632698E-01 -8.73445440040E-02
 124   6   4    7 N     1.59631767017E-02  1.23807237214E-01 -4.12655455996E-01
 125   6   5    7 N     3.92155939487E-01  4.63537306790E-01  3.76192762786E-01
 126   6   6    7 N     3.76192762786E-01  3.92155939487E-01  4.63537306790E-01
 127   6   7    7 N    -4.12655455996E-01  1.59631767017E-02  1.23807237214E-01
 128   6   8    7 N     7.13813673023E-02  1.07844060513E-01  4.84036823298E-01
 129   6   9    7 N     1.07844060513E-01  4.84036823298E-01  7.13813673023E-02
 130   6  10    7 N     4.28618632698E-01 -8.73445440040E-02  3.64626932103E-02
 131   6  11    7 N    -8.73445440040E-02  3.64626932103E-02  4.28618632698E-01
 132   6  12    7 N     1.23807237214E-01 -4.12655455996E-01  1.59631767017E-02
 133   6  13    7 N    -1.23807237214E-01 -3.64626932103E-02 -1.07844060513E-01
 134   6  14    7 N    -4.28618632698E-01 -1.59631767017E-02 -3.92155939487E-01
 135   6  15    7 N    -7.13813673023E-02 -4.63537306790E-01  4.12655455996E-01
 136   6  16    7 N    -3.76192762786E-01 -4.84036823298E-01  8.73445440040E-02
 137   6  17    7 N    -3.64626932103E-02 -1.07844060513E-01 -1.23807237214E-01
 138   6  18    7 N    -1.07844060513E-01 -1.23807237214E-01 -3.64626932103E-02
 139   6  19    7 N    -4.84036823298E-01  8.73445440040E-02 -3.76192762786E-01
 140   6  20    7 N    -3.92155939487E-01 -4.28618632698E-01 -1.59631767017E-02
 141   6  21    7 N    -1.59631767017E-02 -3.92155939487E-01 -4.28618632698E-01
 142   6  22    7 N     4.12655455996E-01 -7.13813673023E-02 -4.63537306790E-01
 143   6  23    7 N    -4.63537306790E-01  4.12655455996E-01 -7.13813673023E-02
 144   6  24    7 N     8.73445440040E-02 -3.76192762786E-01 -4.84036823298E-01

 145   7   1    6 C     3.54261687484E-01  4.72856728934E-01  4.17281498225E-01
 146   7   2    6 C    -4.44424769291E-01 -6.30198107409E-02  8.27185017747E-02
 147   7   3    6 C     1.45738312516E-01 -4.36980189259E-01  1.18595041449E-01
 148   7   4    6 C    -5.55752307086E-02  2.71432710661E-02  3.81404958551E-01
 149   7   5    6 C     4.17281498225E-01  3.54261687484E-01  4.72856728934E-01
 150   7   6    6 C     4.72856728934E-01  4.17281498225E-01  3.54261687484E-01
 151   7   7    6 C     3.81404958551E-01 -5.55752307086E-02  2.71432710661E-02
 152   7   8    6 C    -6.30198107409E-02  8.27185017747E-02 -4.44424769291E-01
 153   7   9    6 C     8.27185017747E-02 -4.44424769291E-01 -6.30198107409E-02
 154   7  10    6 C    -4.36980189259E-01  1.18595041449E-01  1.45738312516E-01
 155   7  11    6 C     1.18595041449E-01  1.45738312516E-01 -4.36980189259E-01
 156   7  12    6 C     2.71432710661E-02  3.81404958551E-01 -5.55752307086E-02
 157   7  13    6 C    -2.71432710661E-02 -1.45738312516E-01 -8.27185017747E-02
 158   7  14    6 C     4.36980189259E-01  5.55752307086E-02 -4.17281498225E-01
 159   7  15    6 C     6.30198107409E-02 -3.54261687484E-01 -3.81404958551E-01
 160   7  16    6 C    -4.72856728934E-01  4.44424769291E-01 -1.18595041449E-01
 161   7  17    6 C    -1.45738312516E-01 -8.27185017747E-02 -2.71432710661E-02
 162   7  18    6 C    -8.27185017747E-02 -2.71432710661E-02 -1.45738312516E-01
 163   7  19    6 C     4.44424769291E-01 -1.18595041449E-01 -4.72856728934E-01
 164   7  20    6 C    -4.17281498225E-01  4.36980189259E-01  5.55752307086E-02
 165   7  21    6 C     5.55752307086E-02 -4.17281498225E-01  4.36980189259E-01
 166   7  22    6 C    -3.81404958551E-01  6.30198107409E-02 -3.54261687484E-01
 167   7  23    6 C    -3.54261687484E-01 -3.81404958551E-01  6.30198107409E-02
 168   7  24    6 C    -1.18595041449E-01 -4.72856728934E-01  4.44424769291E-01

 169   8   1    5 B     3.96420239320E-01  3.31182492088E-01 -4.85377880972E-01
 170   8   2    5 B     3.16560373060E-01 -1.18201879708E-01 -1.46221190282E-02
 171   8   3    5 B     1.03579760680E-01 -3.81798120292E-01 -6.52377472322E-02
 172   8   4    5 B     1.83439626940E-01  1.68817507912E-01 -4.34762252768E-01
 173   8   5    5 B    -4.85377880972E-01  3.96420239320E-01  3.31182492088E-01
 174   8   6    5 B     3.31182492088E-01 -4.85377880972E-01  3.96420239320E-01
 175   8   7    5 B    -4.34762252768E-01  1.83439626940E-01  1.68817507912E-01
 176   8   8    5 B    -1.18201879708E-01 -1.46221190282E-02  3.16560373060E-01
 177   8   9    5 B    -1.46221190282E-02  3.16560373060E-01 -1.18201879708E-01
 178   8  10    5 B    -3.81798120292E-01 -6.52377472322E-02  1.03579760680E-01
 179   8  11    5 B    -6.52377472322E-02  1.03579760680E-01 -3.81798120292E-01
 180   8  12    5 B     1.68817507912E-01 -4.34762252768E-01  1.83439626940E-01
 181   8  13    5 B    -1.68817507912E-01 -1.03579760680E-01  1.46221190282E-02
 182   8  14    5 B     3.81798120292E-01 -1.83439626940E-01  4.85377880972E-01
 183   8  15    5 B     1.18201879708E-01 -3.96420239320E-01  4.34762252768E-01
 184   8  16    5 B    -3.31182492088E-01 -3.16560373060E-01  6.52377472322E-02
 185   8  17    5 B    -1.03579760680E-01  1.46221190282E-02 -1.68817507912E-01
 186   8  18    5 B     1.46221190282E-02 -1.68817507912E-01 -1.03579760680E-01
 187   8  19    5 B    -3.16560373060E-01  6.52377472322E-02 -3.31182492088E-01
 188   8  20    5 B     4.85377880972E-01  3.81798120292E-01 -1.83439626940E-01
 189   8  21    5 B    -1.83439626940E-01  4.85377880972E-01  3.81798120292E-01
 190   8  22    5 B     4.34762252768E-01  1.18201879708E-01 -3.96420239320E-01
 191   8  23    5 B    -3.96420239320E-01  4.34762252768E-01  1.18201879708E-01
 192   8  24    5 B     6.52377472322E-02 -3.31182492088E-01 -3.16560373060E-01

 193   9   1    6 C     4.30973330494E-01  4.22613432833E-01  3.86025852873E-01
 194   9   2    6 C    -4.63412420040E-01  4.49474776212E-02  1.13974147127E-01
 195   9   3    6 C     6.90266695058E-02  4.55052522379E-01 -8.35989766080E-03
 196   9   4    6 C    -3.65875799604E-02  7.73865671666E-02 -4.91640102339E-01
 197   9   5    6 C     3.86025852873E-01  4.30973330494E-01  4.22613432833E-01
 198   9   6    6 C     4.22613432833E-01  3.86025852873E-01  4.30973330494E-01
 199   9   7    6 C    -4.91640102339E-01 -3.65875799604E-02  7.73865671666E-02
 200   9   8    6 C     4.49474776212E-02  1.13974147127E-01 -4.63412420040E-01
 201   9   9    6 C     1.13974147127E-01 -4.63412420040E-01  4.49474776212E-02
 202   9  10    6 C     4.55052522379E-01 -8.35989766080E-03  6.90266695058E-02
 203   9  11    6 C    -8.35989766080E-03  6.90266695058E-02  4.55052522379E-01
 204   9  12    6 C     7.73865671666E-02 -4.91640102339E-01 -3.65875799604E-02
 205   9  13    6 C    -7.73865671666E-02 -6.90266695058E-02 -1.13974147127E-01
 206   9  14    6 C    -4.55052522379E-01  3.65875799604E-02 -3.86025852873E-01
 207   9  15    6 C    -4.49474776212E-02 -4.30973330494E-01  4.91640102339E-01
 208   9  16    6 C    -4.22613432833E-01  4.63412420040E-01  8.35989766080E-03
 209   9  17    6 C    -6.90266695058E-02 -1.13974147127E-01 -7.73865671666E-02
 210   9  18    6 C    -1.13974147127E-01 -7.73865671666E-02 -6.90266695058E-02
 211   9  19    6 C     4.63412420040E-01  8.35989766080E-03 -4.22613432833E-01
 212   9  20    6 C    -3.86025852873E-01 -4.55052522379E-01  3.65875799604E-02
 213   9  21    6 C     3.65875799604E-02 -3.86025852873E-01 -4.55052522379E-01
 214   9  22    6 C     4.91640102339E-01 -4.49474776212E-02 -4.30973330494E-01
 215   9  23    6 C    -4.30973330494E-01  4.91640102339E-01 -4.49474776212E-02
 216   9  24    6 C     8.35989766080E-03 -4.22613432833E-01  4.63412420040E-01

 217  10   1    1 H     4.28304194121E-01  2.76685418144E-01 -4.69785168467E-01
 218  10   2    1 H     2.46470586611E-01 -1.01910637412E-01 -3.02148315331E-02
 219  10   3    1 H     7.16958058789E-02 -3.98089362588E-01 -1.51618775977E-01
 220  10   4    1 H     2.53529413389E-01  2.23314581856E-01 -3.48381224023E-01
 221  10   5    1 H    -4.69785168467E-01  4.28304194121E-01  2.76685418144E-01
 222  10   6    1 H     2.76685418144E-01 -4.69785168467E-01  4.28304194121E-01
 223  10   7    1 H    -3.48381224023E-01  2.53529413389E-01  2.23314581856E-01
 224  10   8    1 H    -1.01910637412E-01 -3.02148315331E-02  2.46470586611E-01
 225  10   9    1 H    -3.02148315331E-02  2.46470586611E-01 -1.01910637412E-01
 226  10  10    1 H    -3.98089362588E-01 -1.51618775977E-01  7.16958058789E-02
 227  10  11    1 H    -1.51618775977E-01  7.16958058789E-02 -3.98089362588E-01
 228  10  12    1 H     2.23314581856E-01 -3.48381224023E-01  2.53529413389E-01
 229  10  13    1 H    -2.23314581856E-01 -7.16958058789E-02  3.02148315331E-02
 230  10  14    1 H     3.98089362588E-01 -2.53529413389E-01  4.69785168467E-01
 231  10  15    1 H     1.01910637412E-01 -4.28304194121E-01  3.48381224023E-01
 232  10  16    1 H    -2.76685418144E-01 -2.46470586611E-01  1.51618775977E-01
 233  10  17    1 H    -7.16958058789E-02  3.02148315331E-02 -2.23314581856E-01
 234  10  18    1 H     3.02148315331E-02 -2.23314581856E-01 -7.16958058789E-02
 235  10  19    1 H    -2.46470586611E-01  1.51618775977E-01 -2.76685418144E-01
 236  10  20    1 H     4.69785168467E-01  3.98089362588E-01 -2.53529413389E-01
 237  10  21    1 H    -2.53529413389E-01  4.69785168467E-01  3.98089362588E-01
 238  10  22    1 H     3.48381224023E-01  1.01910637412E-01 -4.28304194121E-01
 239  10  23    1 H    -4.28304194121E-01  3.48381224023E-01  1.01910637412E-01
 240  10  24    1 H     1.51618775977E-01 -2.76685418144E-01 -2.46470586611E-01

 241  11   1    6 C     4.09938756763E-01  2.82666189446E-01 -4.52586172990E-01
 242  11   2    6 C     2.35252362437E-01 -1.37475070246E-01 -4.74138270095E-02
 243  11   3    6 C     9.00612432366E-02 -3.62524929754E-01 -1.27272567317E-01
 244  11   4    6 C     2.64747637563E-01  2.17333810554E-01 -3.72727432683E-01
 245  11   5    6 C    -4.52586172990E-01  4.09938756763E-01  2.82666189446E-01
 246  11   6    6 C     2.82666189446E-01 -4.52586172990E-01  4.09938756763E-01
 247  11   7    6 C    -3.72727432683E-01  2.64747637563E-01  2.17333810554E-01
 248  11   8    6 C    -1.37475070246E-01 -4.74138270095E-02  2.35252362437E-01
 249  11   9    6 C    -4.74138270095E-02  2.35252362437E-01 -1.37475070246E-01
 250  11  10    6 C    -3.62524929754E-01 -1.27272567317E-01  9.00612432366E-02
 251  11  11    6 C    -1.27272567317E-01  9.00612432366E-02 -3.62524929754E-01
 252  11  12    6 C     2.17333810554E-01 -3.72727432683E-01  2.64747637563E-01
 253  11  13    6 C    -2.17333810554E-01 -9.00612432366E-02  4.74138270095E-02
 254  11  14    6 C     3.62524929754E-01 -2.64747637563E-01  4.52586172990E-01
 255  11  15    6 C     1.37475070246E-01 -4.09938756763E-01  3.72727432683E-01
 256  11  16    6 C    -2.82666189446E-01 -2.35252362437E-01  1.27272567317E-01
 257  11  17    6 C    -9.00612432366E-02  4.74138270095E-02 -2.17333810554E-01
 258  11  18    6 C     4.74138270095E-02 -2.17333810554E-01 -9.00612432366E-02
 259  11  19    6 C    -2.35252362437E-01  1.27272567317E-01 -2.82666189446E-01
 260  11  20    6 C     4.52586172990E-01  3.62524929754E-01 -2.64747637563E-01
 261  11  21    6 C    -2.64747637563E-01  4.52586172990E-01  3.62524929754E-01
 262  11  22    6 C     3.72727432683E-01  1.37475070246E-01 -4.09938756763E-01
 263  11  23    6 C    -4.09938756763E-01  3.72727432683E-01  1.37475070246E-01
 264  11  24    6 C     1.27272567317E-01 -2.82666189446E-01 -2.35252362437E-01

 265  12   1    6 C     3.67217641830E-01  3.16391150182E-01 -4.35306881038E-01
 266  12   2    6 C     2.51698031220E-01 -1.97475477132E-01 -6.46931189625E-02
 267  12   3    6 C     1.32782358170E-01 -3.02524522868E-01 -5.08264916477E-02
 268  12   4    6 C     2.48301968780E-01  1.83608849818E-01 -4.49173508352E-01
 269  12   5    6 C    -4.35306881038E-01  3.67217641830E-01  3.16391150182E-01
 270  12   6    6 C     3.16391150182E-01 -4.35306881038E-01  3.67217641830E-01
 271  12   7    6 C    -4.49173508352E-01  2.48301968780E-01  1.83608849818E-01
 272  12   8    6 C    -1.97475477132E-01 -6.46931189625E-02  2.51698031220E-01
 273  12   9    6 C    -6.46931189625E-02  2.51698031220E-01 -1.97475477132E-01
 274  12  10    6 C    -3.02524522868E-01 -5.08264916477E-02  1.32782358170E-01
 275  12  11    6 C    -5.08264916477E-02  1.32782358170E-01 -3.02524522868E-01
 276  12  12    6 C     1.83608849818E-01 -4.49173508352E-01  2.48301968780E-01
 277  12  13    6 C    -1.83608849818E-01 -1.32782358170E-01  6.46931189625E-02
 278  12  14    6 C     3.02524522868E-01 -2.48301968780E-01  4.35306881037E-01
 279  12  15    6 C     1.97475477132E-01 -3.67217641830E-01  4.49173508352E-01
 280  12  16    6 C    -3.16391150182E-01 -2.51698031220E-01  5.08264916477E-02
 281  12  17    6 C    -1.32782358170E-01  6.46931189625E-02 -1.83608849818E-01
 282  12  18    6 C     6.46931189625E-02 -1.83608849818E-01 -1.32782358170E-01
 283  12  19    6 C    -2.51698031220E-01  5.08264916477E-02 -3.16391150182E-01
 284  12  20    6 C     4.35306881037E-01  3.02524522868E-01 -2.48301968780E-01
 285  12  21    6 C    -2.48301968780E-01  4.35306881037E-01  3.02524522868E-01
 286  12  22    6 C     4.49173508352E-01  1.97475477132E-01 -3.67217641830E-01
 287  12  23    6 C    -3.67217641830E-01  4.49173508352E-01  1.97475477132E-01
 288  12  24    6 C     5.08264916477E-02 -3.16391150182E-01 -2.51698031220E-01

 289  13   1    6 C     3.61959722323E-01  2.96515239103E-01 -4.09832031435E-01
 290  13   2    6 C     2.06347270538E-01 -2.28208246242E-01 -9.01679685650E-02
 291  13   3    6 C     1.38040277677E-01 -2.71791753758E-01 -6.54444832202E-02
 292  13   4    6 C     2.93652729462E-01  2.03484760897E-01 -4.34555516780E-01
 293  13   5    6 C    -4.09832031435E-01  3.61959722323E-01  2.96515239103E-01
 294  13   6    6 C     2.96515239103E-01 -4.09832031435E-01  3.61959722323E-01
 295  13   7    6 C    -4.34555516780E-01  2.93652729462E-01  2.03484760897E-01
 296  13   8    6 C    -2.28208246242E-01 -9.01679685650E-02  2.06347270538E-01
 297  13   9    6 C    -9.01679685650E-02  2.06347270538E-01 -2.28208246242E-01
 298  13  10    6 C    -2.71791753758E-01 -6.54444832202E-02  1.38040277677E-01
 299  13  11    6 C    -6.54444832202E-02  1.38040277677E-01 -2.71791753758E-01
 300  13  12    6 C     2.03484760897E-01 -4.34555516780E-01  2.93652729462E-01
 301  13  13    6 C    -2.03484760897E-01 -1.38040277677E-01  9.01679685650E-02
 302  13  14    6 C     2.71791753758E-01 -2.93652729462E-01  4.09832031435E-01
 303  13  15    6 C     2.28208246242E-01 -3.61959722323E-01  4.34555516780E-01
 304  13  16    6 C    -2.96515239103E-01 -2.06347270538E-01  6.54444832202E-02
 305  13  17    6 C    -1.38040277677E-01  9.01679685650E-02 -2.03484760897E-01
 306  13  18    6 C     9.01679685650E-02 -2.03484760897E-01 -1.38040277677E-01
 307  13  19    6 C    -2.06347270538E-01  6.54444832202E-02 -2.96515239103E-01
 308  13  20    6 C     4.09832031435E-01  2.71791753758E-01 -2.93652729462E-01
 309  13  21    6 C    -2.93652729462E-01  4.09832031435E-01  2.71791753758E-01
 310  13  22    6 C     4.34555516780E-01  2.28208246242E-01 -3.61959722323E-01
 311  13  23    6 C    -3.61959722323E-01  4.34555516780E-01  2.28208246242E-01
 312  13  24    6 C     6.54444832202E-02 -2.96515239103E-01 -2.06347270538E-01

 313  14   1    6 C     3.81314729582E-01  2.70035067614E-01 -4.04594795009E-01
 314  14   2    6 C     1.74629862623E-01 -2.14090475410E-01 -9.54052049915E-02
 315  14   3    6 C     1.18685270418E-01 -2.85909524590E-01 -1.11279661967E-01
 316  14   4    6 C     3.25370137377E-01  2.29964932386E-01 -3.88720338033E-01
 317  14   5    6 C    -4.04594795009E-01  3.81314729582E-01  2.70035067614E-01
 318  14   6    6 C     2.70035067614E-01 -4.04594795009E-01  3.81314729582E-01
 319  14   7    6 C    -3.88720338033E-01  3.25370137377E-01  2.29964932386E-01
 320  14   8    6 C    -2.14090475410E-01 -9.54052049915E-02  1.74629862623E-01
 321  14   9    6 C    -9.54052049915E-02  1.74629862623E-01 -2.14090475410E-01
 322  14  10    6 C    -2.85909524590E-01 -1.11279661967E-01  1.18685270418E-01
 323  14  11    6 C    -1.11279661967E-01  1.18685270418E-01 -2.85909524590E-01
 324  14  12    6 C     2.29964932386E-01 -3.88720338033E-01  3.25370137377E-01
 325  14  13    6 C    -2.29964932386E-01 -1.18685270418E-01  9.54052049915E-02
 326  14  14    6 C     2.85909524590E-01 -3.25370137377E-01  4.04594795009E-01
 327  14  15    6 C     2.14090475410E-01 -3.81314729582E-01  3.88720338033E-01
 328  14  16    6 C    -2.70035067614E-01 -1.74629862623E-01  1.11279661967E-01
 329  14  17    6 C    -1.18685270418E-01  9.54052049915E-02 -2.29964932386E-01
 330  14  18    6 C     9.54052049915E-02 -2.29964932386E-01 -1.18685270418E-01
 331  14  19    6 C    -1.74629862623E-01  1.11279661967E-01 -2.70035067614E-01
 332  14  20    6 C     4.04594795009E-01  2.85909524590E-01 -3.25370137377E-01
 333  14  21    6 C    -3.25370137377E-01  4.04594795009E-01  2.85909524590E-01
 334  14  22    6 C     3.88720338033E-01  2.14090475410E-01 -3.81314729582E-01
 335  14  23    6 C    -3.81314729582E-01  3.88720338033E-01  2.14090475410E-01
 336  14  24    6 C     1.11279661967E-01 -2.70035067614E-01 -1.74629862623E-01

 337  15   1    1 H     4.18982472719E-01  2.41463595771E-01 -4.24229350496E-01
 338  15   2    1 H     1.65692946267E-01 -1.56788176784E-01 -7.57706495039E-02
 339  15   3    1 H     8.10175272805E-02 -3.43211823216E-01 -1.77518876949E-01
 340  15   4    1 H     3.34307053733E-01  2.58536404229E-01 -3.22481123051E-01
 341  15   5    1 H    -4.24229350496E-01  4.18982472719E-01  2.41463595771E-01
 342  15   6    1 H     2.41463595771E-01 -4.24229350496E-01  4.18982472719E-01
 343  15   7    1 H    -3.22481123051E-01  3.34307053733E-01  2.58536404229E-01
 344  15   8    1 H    -1.56788176784E-01 -7.57706495039E-02  1.65692946267E-01
 345  15   9    1 H    -7.57706495039E-02  1.65692946267E-01 -1.56788176784E-01
 346  15  10    1 H    -3.43211823216E-01 -1.77518876949E-01  8.10175272805E-02
 347  15  11    1 H    -1.77518876949E-01  8.10175272805E-02 -3.43211823216E-01
 348  15  12    1 H     2.58536404229E-01 -3.22481123051E-01  3.34307053733E-01
 349  15  13    1 H    -2.58536404229E-01 -8.10175272805E-02  7.57706495039E-02
 350  15  14    1 H     3.43211823216E-01 -3.34307053733E-01  4.24229350496E-01
 351  15  15    1 H     1.56788176784E-01 -4.18982472719E-01  3.22481123051E-01
 352  15  16    1 H    -2.41463595771E-01 -1.65692946267E-01  1.77518876949E-01
 353  15  17    1 H    -8.10175272805E-02  7.57706495039E-02 -2.58536404229E-01
 354  15  18    1 H     7.57706495039E-02 -2.58536404229E-01 -8.10175272805E-02
 355  15  19    1 H    -1.65692946267E-01  1.77518876949E-01 -2.41463595771E-01
 356  15  20    1 H     4.24229350496E-01  3.43211823216E-01 -3.34307053733E-01
 357  15  21    1 H    -3.34307053733E-01  4.24229350496E-01  3.43211823216E-01
 358  15  22    1 H     3.22481123051E-01  1.56788176784E-01 -4.18982472719E-01
 359  15  23    1 H    -4.18982472719E-01  3.22481123051E-01  1.56788176784E-01
 360  15  24    1 H     1.77518876949E-01 -2.41463595771E-01 -1.65692946267E-01

 361  16   1    1 H     3.41935959016E-01  3.00582805209E-01 -3.94138087269E-01
 362  16   2    1 H     1.94720892477E-01 -2.63925953715E-01 -1.05861912731E-01
 363  16   3    1 H     1.58064040984E-01 -2.36074046285E-01 -4.13531538075E-02
 364  16   4    1 H     3.05279107523E-01  1.99417194791E-01 -4.58646846192E-01
 365  16   5    1 H    -3.94138087269E-01  3.41935959016E-01  3.00582805209E-01
 366  16   6    1 H     3.00582805209E-01 -3.94138087269E-01  3.41935959016E-01
 367  16   7    1 H    -4.58646846192E-01  3.05279107523E-01  1.99417194791E-01
 368  16   8    1 H    -2.63925953715E-01 -1.05861912731E-01  1.94720892477E-01
 369  16   9    1 H    -1.05861912731E-01  1.94720892477E-01 -2.63925953715E-01
 370  16  10    1 H    -2.36074046285E-01 -4.13531538075E-02  1.58064040984E-01
 371  16  11    1 H    -4.13531538075E-02  1.58064040984E-01 -2.36074046285E-01
 372  16  12    1 H     1.99417194791E-01 -4.58646846192E-01  3.05279107523E-01
 373  16  13    1 H    -1.99417194791E-01 -1.58064040984E-01  1.05861912731E-01
 374  16  14    1 H     2.36074046285E-01 -3.05279107523E-01  3.94138087269E-01
 375  16  15    1 H     2.63925953715E-01 -3.41935959016E-01  4.58646846193E-01
 376  16  16    1 H    -3.00582805209E-01 -1.94720892477E-01  4.13531538075E-02
 377  16  17    1 H    -1.58064040984E-01  1.05861912731E-01 -1.99417194791E-01
 378  16  18    1 H     1.05861912731E-01 -1.99417194791E-01 -1.58064040984E-01
 379  16  19    1 H    -1.94720892477E-01  4.13531538075E-02 -3.00582805209E-01
 380  16  20    1 H     3.94138087269E-01  2.36074046285E-01 -3.05279107523E-01
 381  16  21    1 H    -3.05279107523E-01  3.94138087269E-01  2.36074046285E-01
 382  16  22    1 H     4.58646846193E-01  2.63925953715E-01 -3.41935959016E-01
 383  16  23    1 H    -3.41935959016E-01  4.58646846193E-01  2.63925953715E-01
 384  16  24    1 H     4.13531538075E-02 -3.00582805209E-01 -1.94720892477E-01

 385  17   1    6 C     3.91450662874E-01  3.09771528987E-01 -4.57100234635E-01
 386  17   2    6 C     2.66871763622E-01 -1.51449102491E-01 -4.28997653649E-02
 387  17   3    6 C     1.08549337126E-01 -3.48550897509E-01 -8.16791338869E-02
 388  17   4    6 C     2.33128236378E-01  1.90228471013E-01 -4.18320866113E-01
 389  17   5    6 C    -4.57100234635E-01  3.91450662874E-01  3.09771528987E-01
 390  17   6    6 C     3.09771528987E-01 -4.57100234635E-01  3.91450662874E-01
 391  17   7    6 C    -4.18320866113E-01  2.33128236378E-01  1.90228471013E-01
 392  17   8    6 C    -1.51449102491E-01 -4.28997653649E-02  2.66871763622E-01
 393  17   9    6 C    -4.28997653649E-02  2.66871763622E-01 -1.51449102491E-01
 394  17  10    6 C    -3.48550897509E-01 -8.16791338869E-02  1.08549337126E-01
 395  17  11    6 C    -8.16791338869E-02  1.08549337126E-01 -3.48550897509E-01
 396  17  12    6 C     1.90228471013E-01 -4.18320866113E-01  2.33128236378E-01
 397  17  13    6 C    -1.90228471013E-01 -1.08549337126E-01  4.28997653649E-02
 398  17  14    6 C     3.48550897509E-01 -2.33128236378E-01  4.57100234635E-01
 399  17  15    6 C     1.51449102491E-01 -3.91450662874E-01  4.18320866113E-01
 400  17  16    6 C    -3.09771528987E-01 -2.66871763622E-01  8.16791338869E-02
 401  17  17    6 C    -1.08549337126E-01  4.28997653649E-02 -1.90228471013E-01
 402  17  18    6 C     4.28997653649E-02 -1.90228471013E-01 -1.08549337126E-01
 403  17  19    6 C    -2.66871763622E-01  8.16791338869E-02 -3.09771528987E-01
 404  17  20    6 C     4.57100234635E-01  3.48550897509E-01 -2.33128236378E-01
 405  17  21    6 C    -2.33128236378E-01  4.57100234635E-01  3.48550897509E-01
 406  17  22    6 C     4.18320866113E-01  1.51449102491E-01 -3.91450662874E-01
 407  17  23    6 C    -3.91450662874E-01  4.18320866113E-01  1.51449102491E-01
 408  17  24    6 C     8.16791338869E-02 -3.09771528987E-01 -2.66871763622E-01

 409  18   1    6 C     4.04863020134E-01  2.62940046566E-01 -4.26760247503E-01
 410  18   2    6 C     1.89700294069E-01 -1.68376732364E-01 -7.32397524973E-02
 411  18   3    6 C     9.51369798664E-02 -3.31623267636E-01 -1.41922973567E-01
 412  18   4    6 C     3.10299705931E-01  2.37059953434E-01 -3.58077026432E-01
 413  18   5    6 C    -4.26760247503E-01  4.04863020134E-01  2.62940046566E-01
 414  18   6    6 C     2.62940046566E-01 -4.26760247503E-01  4.04863020134E-01
 415  18   7    6 C    -3.58077026432E-01  3.10299705931E-01  2.37059953434E-01
 416  18   8    6 C    -1.68376732364E-01 -7.32397524973E-02  1.89700294069E-01
 417  18   9    6 C    -7.32397524973E-02  1.89700294069E-01 -1.68376732364E-01
 418  18  10    6 C    -3.31623267636E-01 -1.41922973567E-01  9.51369798664E-02
 419  18  11    6 C    -1.41922973567E-01  9.51369798664E-02 -3.31623267636E-01
 420  18  12    6 C     2.37059953434E-01 -3.58077026432E-01  3.10299705931E-01
 421  18  13    6 C    -2.37059953434E-01 -9.51369798664E-02  7.32397524973E-02
 422  18  14    6 C     3.31623267636E-01 -3.10299705931E-01  4.26760247503E-01
 423  18  15    6 C     1.68376732364E-01 -4.04863020134E-01  3.58077026433E-01
 424  18  16    6 C    -2.62940046566E-01 -1.89700294069E-01  1.41922973568E-01
 425  18  17    6 C    -9.51369798664E-02  7.32397524973E-02 -2.37059953434E-01
 426  18  18    6 C     7.32397524973E-02 -2.37059953434E-01 -9.51369798664E-02
 427  18  19    6 C    -1.89700294069E-01  1.41922973568E-01 -2.62940046566E-01
 428  18  20    6 C     4.26760247503E-01  3.31623267636E-01 -3.10299705931E-01
 429  18  21    6 C    -3.10299705931E-01  4.26760247503E-01  3.31623267636E-01
 430  18  22    6 C     3.58077026433E-01  1.68376732364E-01 -4.04863020134E-01
 431  18  23    6 C    -4.04863020134E-01  3.58077026433E-01  1.68376732364E-01
 432  18  24    6 C     1.41922973568E-01 -2.62940046566E-01 -1.89700294069E-01

 433  19   1    1 H     3.52327994953E-01  3.37157630657E-01 -4.38772211284E-01
 434  19   2    1 H     2.75929841941E-01 -2.08899793764E-01 -6.12277887161E-02
 435  19   3    1 H     1.47672005047E-01 -2.91100206236E-01 -1.51703642951E-02
 436  19   4    1 H     2.24070158059E-01  1.62842369343E-01 -4.84829635705E-01
 437  19   5    1 H    -4.38772211284E-01  3.52327994953E-01  3.37157630657E-01
 438  19   6    1 H     3.37157630657E-01 -4.38772211284E-01  3.52327994953E-01
 439  19   7    1 H    -4.84829635705E-01  2.24070158059E-01  1.62842369343E-01
 440  19   8    1 H    -2.08899793764E-01 -6.12277887161E-02  2.75929841941E-01
 441  19   9    1 H    -6.12277887161E-02  2.75929841941E-01 -2.08899793764E-01
 442  19  10    1 H    -2.91100206236E-01 -1.51703642951E-02  1.47672005047E-01
 443  19  11    1 H    -1.51703642951E-02  1.47672005047E-01 -2.91100206236E-01
 444  19  12    1 H     1.62842369343E-01 -4.84829635705E-01  2.24070158059E-01
 445  19  13    1 H    -1.62842369343E-01 -1.47672005047E-01  6.12277887161E-02
 446  19  14    1 H     2.91100206236E-01 -2.24070158059E-01  4.38772211284E-01
 447  19  15    1 H     2.08899793764E-01 -3.52327994953E-01  4.84829635705E-01
 448  19  16    1 H    -3.37157630657E-01 -2.75929841941E-01  1.51703642951E-02
 449  19  17    1 H    -1.47672005047E-01  6.12277887161E-02 -1.62842369343E-01
 450  19  18    1 H     6.12277887161E-02 -1.62842369343E-01 -1.47672005047E-01
 451  19  19    1 H    -2.75929841941E-01  1.51703642951E-02 -3.37157630657E-01
 452  19  20    1 H     4.38772211284E-01  2.91100206236E-01 -2.24070158059E-01
 453  19  21    1 H    -2.24070158059E-01  4.38772211284E-01  2.91100206236E-01
 454  19  22    1 H     4.84829635705E-01  2.08899793764E-01 -3.52327994953E-01
 455  19  23    1 H    -3.52327994953E-01  4.84829635705E-01  2.08899793764E-01
 456  19  24    1 H     1.51703642951E-02 -3.37157630657E-01 -2.75929841941E-01

 457  20   1   28 NI   -2.89993907882E-02 -9.33814394940E-02 -1.64925010501E-01
 458  20   2   28 NI   -4.28456428993E-01  1.35925619713E-01 -3.35074989499E-01
 459  20   3   28 NI   -4.71000609212E-01  3.64074380287E-01 -6.43820487057E-02
 460  20   4   28 NI   -7.15435710071E-02 -4.06618560506E-01 -4.35617951294E-01
 461  20   5   28 NI   -1.64925010501E-01 -2.89993907882E-02 -9.33814394940E-02
 462  20   6   28 NI   -9.33814394940E-02 -1.64925010501E-01 -2.89993907882E-02
 463  20   7   28 NI   -4.35617951294E-01 -7.15435710071E-02 -4.06618560506E-01
 464  20   8   28 NI    1.35925619713E-01 -3.35074989499E-01 -4.28456428993E-01
 465  20   9   28 NI   -3.35074989499E-01 -4.28456428993E-01  1.35925619713E-01
 466  20  10   28 NI    3.64074380287E-01 -6.43820487057E-02 -4.71000609212E-01
 467  20  11   28 NI   -6.43820487057E-02 -4.71000609212E-01  3.64074380287E-01
 468  20  12   28 NI   -4.06618560506E-01 -4.35617951294E-01 -7.15435710071E-02
 469  20  13   28 NI    4.06618560506E-01  4.71000609212E-01  3.35074989499E-01
 470  20  14   28 NI   -3.64074380287E-01  7.15435710071E-02  1.64925010501E-01
 471  20  15   28 NI   -1.35925619713E-01  2.89993907882E-02  4.35617951294E-01
 472  20  16   28 NI    9.33814394940E-02  4.28456428993E-01  6.43820487057E-02
 473  20  17   28 NI    4.71000609212E-01  3.35074989499E-01  4.06618560506E-01
 474  20  18   28 NI    3.35074989499E-01  4.06618560506E-01  4.71000609212E-01
 475  20  19   28 NI    4.28456428993E-01  6.43820487057E-02  9.33814394940E-02
 476  20  20   28 NI    1.64925010501E-01 -3.64074380287E-01  7.15435710071E-02
 477  20  21   28 NI    7.15435710071E-02  1.64925010501E-01 -3.64074380287E-01
 478  20  22   28 NI    4.35617951294E-01 -1.35925619713E-01  2.89993907882E-02
 479  20  23   28 NI    2.89993907882E-02  4.35617951294E-01 -1.35925619713E-01
 480  20  24   28 NI    6.43820487057E-02  9.33814394940E-02  4.28456428993E-01

 481  21   1   17 CL   -9.56715384616E-02 -1.39927991389E-01 -2.17771220487E-01
 482  21   2   17 CL   -4.22156770902E-01  1.22099682025E-01 -2.82228779513E-01
 483  21   3   17 CL   -4.04328461538E-01  3.77900317975E-01 -4.42564529272E-02
 484  21   4   17 CL   -7.78432290982E-02 -3.60072008611E-01 -4.55743547073E-01
 485  21   5   17 CL   -2.17771220487E-01 -9.56715384616E-02 -1.39927991389E-01
 486  21   6   17 CL   -1.39927991389E-01 -2.17771220487E-01 -9.56715384616E-02
 487  21   7   17 CL   -4.55743547073E-01 -7.78432290982E-02 -3.60072008611E-01
 488  21   8   17 CL    1.22099682025E-01 -2.82228779513E-01 -4.22156770902E-01
 489  21   9   17 CL   -2.82228779513E-01 -4.22156770902E-01  1.22099682025E-01
 490  21  10   17 CL    3.77900317975E-01 -4.42564529272E-02 -4.04328461538E-01
 491  21  11   17 CL   -4.42564529272E-02 -4.04328461538E-01  3.77900317975E-01
 492  21  12   17 CL   -3.60072008611E-01 -4.55743547073E-01 -7.78432290982E-02
 493  21  13   17 CL    3.60072008611E-01  4.04328461538E-01  2.82228779513E-01
 494  21  14   17 CL   -3.77900317975E-01  7.78432290982E-02  2.17771220487E-01
 495  21  15   17 CL   -1.22099682025E-01  9.56715384616E-02  4.55743547073E-01
 496  21  16   17 CL    1.39927991389E-01  4.22156770902E-01  4.42564529272E-02
 497  21  17   17 CL    4.04328461538E-01  2.82228779513E-01  3.60072008611E-01
 498  21  18   17 CL    2.82228779513E-01  3.60072008611E-01  4.04328461538E-01
 499  21  19   17 CL    4.22156770902E-01  4.42564529272E-02  1.39927991389E-01
 500  21  20   17 CL    2.17771220487E-01 -3.77900317975E-01  7.78432290982E-02
 501  21  21   17 CL    7.78432290982E-02  2.17771220487E-01 -3.77900317975E-01
 502  21  22   17 CL    4.55743547073E-01 -1.22099682025E-01  9.56715384616E-02
 503  21  23   17 CL    9.56715384616E-02  4.55743547073E-01 -1.22099682025E-01
 504  21  24   17 CL    4.42564529272E-02  1.39927991389E-01  4.22156770902E-01

 505  22   1   17 CL    4.03202928445E-02 -4.82516723170E-02 -1.23284206431E-01
 506  22   2   17 CL   -4.24967465886E-01  1.63604499275E-01 -3.76715793569E-01
 507  22   3   17 CL    4.59679707155E-01  3.36395500725E-01 -8.85719651615E-02
 508  22   4   17 CL   -7.50325341136E-02 -4.51748327683E-01 -4.11428034839E-01
 509  22   5   17 CL   -1.23284206431E-01  4.03202928445E-02 -4.82516723170E-02
 510  22   6   17 CL   -4.82516723170E-02 -1.23284206431E-01  4.03202928445E-02
 511  22   7   17 CL   -4.11428034839E-01 -7.50325341136E-02 -4.51748327683E-01
 512  22   8   17 CL    1.63604499275E-01 -3.76715793569E-01 -4.24967465886E-01
 513  22   9   17 CL   -3.76715793569E-01 -4.24967465886E-01  1.63604499275E-01
 514  22  10   17 CL    3.36395500725E-01 -8.85719651615E-02  4.59679707155E-01
 515  22  11   17 CL   -8.85719651615E-02  4.59679707155E-01  3.36395500725E-01
 516  22  12   17 CL   -4.51748327683E-01 -4.11428034839E-01 -7.50325341136E-02
 517  22  13   17 CL    4.51748327683E-01 -4.59679707155E-01  3.76715793569E-01
 518  22  14   17 CL   -3.36395500725E-01  7.50325341136E-02  1.23284206431E-01
 519  22  15   17 CL   -1.63604499275E-01 -4.03202928445E-02  4.11428034839E-01
 520  22  16   17 CL    4.82516723170E-02  4.24967465886E-01  8.85719651615E-02
 521  22  17   17 CL   -4.59679707155E-01  3.76715793569E-01  4.51748327683E-01
 522  22  18   17 CL    3.76715793569E-01  4.51748327683E-01 -4.59679707155E-01
 523  22  19   17 CL    4.24967465886E-01  8.85719651615E-02  4.82516723170E-02
 524  22  20   17 CL    1.23284206431E-01 -3.36395500725E-01  7.50325341136E-02
 525  22  21   17 CL    7.50325341136E-02  1.23284206431E-01 -3.36395500725E-01
 526  22  22   17 CL    4.11428034839E-01 -1.63604499275E-01 -4.03202928445E-02
 527  22  23   17 CL   -4.03202928445E-02  4.11428034839E-01 -1.63604499275E-01
 528  22  24   17 CL    8.85719651615E-02  4.82516723170E-02  4.24967465886E-01

 529  23   1    6 C    -2.50000000000E-01 -1.25000000000E-01  1.25000000000E-01
 530  23   2    6 C     2.50000000000E-01 -3.75000000000E-01  3.75000000000E-01
 531  23   3    6 C     1.25000000000E-01 -2.50000000000E-01 -1.25000000000E-01
 532  23   4    6 C    -1.25000000000E-01  1.25000000000E-01 -2.50000000000E-01
 533  23   5    6 C     3.75000000000E-01  2.50000000000E-01 -3.75000000000E-01
 534  23   6    6 C    -3.75000000000E-01  3.75000000000E-01  2.50000000000E-01

 NUMBER OF SYMMETRY OPERATORS         :   24
 *******************************************************************************
 * GEOMETRY EDITING - INPUT COORDINATES ARE GIVEN IN ANGSTROM         
 *******************************************************************************

 GEOMETRY NOW FULLY CONSISTENT WITH THE GROUP

 GCALCO - MAX INDICES DIRECT LATTICE VECTOR    14    14    14
 NO.OF VECTORS CREATED 6999 STARS  122 RMAX   754.19774 BOHR

 GEOMETRY FOR WAVE FUNCTION - DIMENSIONALITY OF THE SYSTEM    3
 (NON PERIODIC DIRECTION: LATTICE PARAMETER FORMALLY SET TO 500)
 *******************************************************************************
 LATTICE PARAMETERS (ANGSTROMS AND DEGREES) - BOHR = 0.5291772083 ANGSTROM
 PRIMITIVE CELL - CENTRING CODE 6/0 VOLUME= 37856.814479 - DENSITY  0.343 g/cm^3
         A              B              C           ALPHA      BETA       GAMMA 
    36.63717558    36.63717558    36.63717558   109.471221 109.471221 109.471221
 *******************************************************************************
 ATOMS IN THE ASYMMETRIC UNIT   23 - ATOMS IN THE UNIT CELL:  534
     ATOM                 X/A                 Y/B                 Z/C    
 *******************************************************************************
      1 T   8 O    -4.953629998334E-01  3.740003102490E-01  3.543088234756E-01
      2 F   8 O    -4.803085132266E-01  1.503281766910E-01  1.456911765244E-01
      3 F   8 O    -4.637000166600E-03  3.496718233090E-01 -1.306366899176E-01
      4 F   8 O    -1.969148677340E-02  1.259996897510E-01 -3.693633100824E-01
      5 F   8 O     3.543088234756E-01 -4.953629998334E-01  3.740003102490E-01
      6 F   8 O     3.740003102490E-01  3.543088234756E-01 -4.953629998334E-01
      7 F   8 O    -3.693633100824E-01 -1.969148677340E-02  1.259996897510E-01
      8 F   8 O     1.503281766910E-01  1.456911765244E-01 -4.803085132266E-01
      9 F   8 O     1.456911765244E-01 -4.803085132266E-01  1.503281766910E-01
     10 F   8 O     3.496718233090E-01 -1.306366899176E-01 -4.637000166600E-03
     11 F   8 O    -1.306366899176E-01 -4.637000166600E-03  3.496718233090E-01
     12 F   8 O     1.259996897510E-01 -3.693633100824E-01 -1.969148677340E-02
     13 F   8 O    -1.259996897510E-01  4.637000166600E-03 -1.456911765244E-01
     14 F   8 O    -3.496718233090E-01  1.969148677340E-02 -3.543088234756E-01
     15 F   8 O    -1.503281766910E-01  4.953629998334E-01  3.693633100824E-01
     16 F   8 O    -3.740003102490E-01  4.803085132266E-01  1.306366899176E-01
     17 F   8 O     4.637000166600E-03 -1.456911765244E-01 -1.259996897510E-01
     18 F   8 O    -1.456911765244E-01 -1.259996897510E-01  4.637000166600E-03
     19 F   8 O     4.803085132266E-01  1.306366899176E-01 -3.740003102490E-01
     20 F   8 O    -3.543088234756E-01 -3.496718233090E-01  1.969148677340E-02
     21 F   8 O     1.969148677340E-02 -3.543088234756E-01 -3.496718233090E-01
     22 F   8 O     3.693633100824E-01 -1.503281766910E-01  4.953629998334E-01
     23 F   8 O     4.953629998334E-01  3.693633100824E-01 -1.503281766910E-01
     24 F   8 O     1.306366899176E-01 -3.740003102490E-01  4.803085132266E-01
     25 T   7 N     4.492314265905E-01  4.349808338808E-01  3.623241242009E-01
     26 F   7 N    -4.273432903201E-01  8.690730238960E-02  1.376758757991E-01
     27 F   7 N     5.076857340950E-02  4.130926976104E-01 -1.425059270970E-02
     28 F   7 N    -7.265670967990E-02  6.501916611920E-02 -4.857494072903E-01
     29 F   7 N     3.623241242009E-01  4.492314265905E-01  4.349808338808E-01
     30 F   7 N     4.349808338808E-01  3.623241242009E-01  4.492314265905E-01
     31 F   7 N    -4.857494072903E-01 -7.265670967990E-02  6.501916611920E-02
     32 F   7 N     8.690730238960E-02  1.376758757991E-01 -4.273432903201E-01
     33 F   7 N     1.376758757991E-01 -4.273432903201E-01  8.690730238960E-02
     34 F   7 N     4.130926976104E-01 -1.425059270970E-02  5.076857340950E-02
     35 F   7 N    -1.425059270970E-02  5.076857340950E-02  4.130926976104E-01
     36 F   7 N     6.501916611920E-02 -4.857494072903E-01 -7.265670967990E-02
     37 F   7 N    -6.501916611920E-02 -5.076857340950E-02 -1.376758757991E-01
     38 F   7 N    -4.130926976104E-01  7.265670967990E-02 -3.623241242009E-01
     39 F   7 N    -8.690730238960E-02 -4.492314265905E-01  4.857494072903E-01
     40 F   7 N    -4.349808338808E-01  4.273432903201E-01  1.425059270970E-02
     41 F   7 N    -5.076857340950E-02 -1.376758757991E-01 -6.501916611920E-02
     42 F   7 N    -1.376758757991E-01 -6.501916611920E-02 -5.076857340950E-02
     43 F   7 N     4.273432903201E-01  1.425059270970E-02 -4.349808338808E-01
     44 F   7 N    -3.623241242009E-01 -4.130926976104E-01  7.265670967990E-02
     45 F   7 N     7.265670967990E-02 -3.623241242009E-01 -4.130926976104E-01
     46 F   7 N     4.857494072903E-01 -8.690730238960E-02 -4.492314265905E-01
     47 F   7 N    -4.492314265905E-01  4.857494072903E-01 -8.690730238960E-02
     48 F   7 N     1.425059270970E-02 -4.349808338808E-01  4.273432903201E-01
     49 T   6 C     4.797965257223E-01  3.875102906904E-01  3.684206723945E-01
     50 F   6 C    -4.809103817041E-01  1.113758533278E-01  1.315793276055E-01
     51 F   6 C     2.020347427770E-02  3.886241466722E-01 -9.228623503190E-02
     52 F   6 C    -1.908961829590E-02  1.124897093096E-01 -4.077137649681E-01
     53 F   6 C     3.684206723945E-01  4.797965257223E-01  3.875102906904E-01
     54 F   6 C     3.875102906904E-01  3.684206723945E-01  4.797965257223E-01
     55 F   6 C    -4.077137649681E-01 -1.908961829590E-02  1.124897093096E-01
     56 F   6 C     1.113758533278E-01  1.315793276055E-01 -4.809103817041E-01
     57 F   6 C     1.315793276055E-01 -4.809103817041E-01  1.113758533278E-01
     58 F   6 C     3.886241466722E-01 -9.228623503190E-02  2.020347427770E-02
     59 F   6 C    -9.228623503190E-02  2.020347427770E-02  3.886241466722E-01
     60 F   6 C     1.124897093096E-01 -4.077137649681E-01 -1.908961829590E-02
     61 F   6 C    -1.124897093096E-01 -2.020347427770E-02 -1.315793276055E-01
     62 F   6 C    -3.886241466722E-01  1.908961829590E-02 -3.684206723945E-01
     63 F   6 C    -1.113758533278E-01 -4.797965257223E-01  4.077137649681E-01
     64 F   6 C    -3.875102906904E-01  4.809103817041E-01  9.228623503190E-02
     65 F   6 C    -2.020347427770E-02 -1.315793276055E-01 -1.124897093096E-01
     66 F   6 C    -1.315793276055E-01 -1.124897093096E-01 -2.020347427770E-02
     67 F   6 C     4.809103817041E-01  9.228623503190E-02 -3.875102906904E-01
     68 F   6 C    -3.684206723945E-01 -3.886241466722E-01  1.908961829590E-02
     69 F   6 C     1.908961829590E-02 -3.684206723945E-01 -3.886241466722E-01
     70 F   6 C     4.077137649681E-01 -1.113758533278E-01 -4.797965257223E-01
     71 F   6 C    -4.797965257223E-01  4.077137649681E-01 -1.113758533278E-01
     72 F   6 C     9.228623503190E-02 -3.875102906904E-01  4.809103817041E-01
     73 T   6 C     4.025770307993E-01  4.391352481081E-01  3.948873686348E-01
     74 F   6 C    -4.557521205267E-01  7.689662164500E-03  1.051126313652E-01
     75 F   6 C     9.742296920070E-02  4.923103378355E-01  3.655821730880E-02
     76 F   6 C    -4.424787947330E-02  6.086475189190E-02  4.634417826912E-01
     77 F   6 C     3.948873686348E-01  4.025770307993E-01  4.391352481081E-01
     78 F   6 C     4.391352481081E-01  3.948873686348E-01  4.025770307993E-01
     79 F   6 C     4.634417826912E-01 -4.424787947330E-02  6.086475189190E-02
     80 F   6 C     7.689662164500E-03  1.051126313652E-01 -4.557521205267E-01
     81 F   6 C     1.051126313652E-01 -4.557521205267E-01  7.689662164500E-03
     82 F   6 C     4.923103378355E-01  3.655821730880E-02  9.742296920070E-02
     83 F   6 C     3.655821730880E-02  9.742296920070E-02  4.923103378355E-01
     84 F   6 C     6.086475189190E-02  4.634417826912E-01 -4.424787947330E-02
     85 F   6 C    -6.086475189190E-02 -9.742296920070E-02 -1.051126313652E-01
     86 F   6 C    -4.923103378355E-01  4.424787947330E-02 -3.948873686348E-01
     87 F   6 C    -7.689662164500E-03 -4.025770307993E-01 -4.634417826912E-01
     88 F   6 C    -4.391352481081E-01  4.557521205267E-01 -3.655821730880E-02
     89 F   6 C    -9.742296920070E-02 -1.051126313652E-01 -6.086475189190E-02
     90 F   6 C    -1.051126313652E-01 -6.086475189190E-02 -9.742296920070E-02
     91 F   6 C     4.557521205267E-01 -3.655821730880E-02 -4.391352481081E-01
     92 F   6 C    -3.948873686348E-01 -4.923103378355E-01  4.424787947330E-02
     93 F   6 C     4.424787947330E-02 -3.948873686348E-01 -4.923103378355E-01
     94 F   6 C    -4.634417826912E-01 -7.689662164500E-03 -4.025770307993E-01
     95 F   6 C    -4.025770307993E-01 -4.634417826912E-01 -7.689662164500E-03
     96 F   6 C    -3.655821730880E-02 -4.391352481081E-01  4.557521205267E-01
     97 T   8 O     4.232016447998E-01  3.315116773512E-01  4.947330983126E-01
     98 F   8 O     3.367785790386E-01 -7.153145351280E-02  5.266901687400E-03
     99 F   8 O     7.679835520020E-02 -4.284685464872E-01 -9.168996744860E-02
    100 F   8 O     1.632214209614E-01  1.684883226488E-01 -4.083100325514E-01
    101 F   8 O     4.947330983126E-01  4.232016447998E-01  3.315116773512E-01
    102 F   8 O     3.315116773512E-01  4.947330983126E-01  4.232016447998E-01
    103 F   8 O    -4.083100325514E-01  1.632214209614E-01  1.684883226488E-01
    104 F   8 O    -7.153145351280E-02  5.266901687400E-03  3.367785790386E-01
    105 F   8 O     5.266901687400E-03  3.367785790386E-01 -7.153145351280E-02
    106 F   8 O    -4.284685464872E-01 -9.168996744860E-02  7.679835520020E-02
    107 F   8 O    -9.168996744860E-02  7.679835520020E-02 -4.284685464872E-01
    108 F   8 O     1.684883226488E-01 -4.083100325514E-01  1.632214209614E-01
    109 F   8 O    -1.684883226488E-01 -7.679835520020E-02 -5.266901687400E-03
    110 F   8 O     4.284685464872E-01 -1.632214209614E-01 -4.947330983126E-01
    111 F   8 O     7.153145351280E-02 -4.232016447998E-01  4.083100325514E-01
    112 F   8 O    -3.315116773512E-01 -3.367785790386E-01  9.168996744860E-02
    113 F   8 O    -7.679835520020E-02 -5.266901687400E-03 -1.684883226488E-01
    114 F   8 O    -5.266901687400E-03 -1.684883226488E-01 -7.679835520020E-02
    115 F   8 O    -3.367785790386E-01  9.168996744860E-02 -3.315116773512E-01
    116 F   8 O    -4.947330983126E-01  4.284685464872E-01 -1.632214209614E-01
    117 F   8 O    -1.632214209614E-01 -4.947330983126E-01  4.284685464872E-01
    118 F   8 O     4.083100325514E-01  7.153145351280E-02 -4.232016447998E-01
    119 F   8 O    -4.232016447998E-01  4.083100325514E-01  7.153145351280E-02
    120 F   8 O     9.168996744860E-02 -3.315116773512E-01 -3.367785790386E-01
    121 T   7 N     4.635373067897E-01  3.761927627857E-01  3.921559394874E-01
    122 F   7 N     4.840368232983E-01  7.138136730230E-02  1.078440605126E-01
    123 F   7 N     3.646269321030E-02  4.286186326977E-01 -8.734454400400E-02
    124 F   7 N     1.596317670170E-02  1.238072372143E-01 -4.126554559960E-01
    125 F   7 N     3.921559394874E-01  4.635373067897E-01  3.761927627857E-01
    126 F   7 N     3.761927627857E-01  3.921559394874E-01  4.635373067897E-01
    127 F   7 N    -4.126554559960E-01  1.596317670170E-02  1.238072372143E-01
    128 F   7 N     7.138136730230E-02  1.078440605126E-01  4.840368232983E-01
    129 F   7 N     1.078440605126E-01  4.840368232983E-01  7.138136730230E-02
    130 F   7 N     4.286186326977E-01 -8.734454400400E-02  3.646269321030E-02
    131 F   7 N    -8.734454400400E-02  3.646269321030E-02  4.286186326977E-01
    132 F   7 N     1.238072372143E-01 -4.126554559960E-01  1.596317670170E-02
    133 F   7 N    -1.238072372143E-01 -3.646269321030E-02 -1.078440605126E-01
    134 F   7 N    -4.286186326977E-01 -1.596317670170E-02 -3.921559394874E-01
    135 F   7 N    -7.138136730230E-02 -4.635373067897E-01  4.126554559960E-01
    136 F   7 N    -3.761927627857E-01 -4.840368232983E-01  8.734454400400E-02
    137 F   7 N    -3.646269321030E-02 -1.078440605126E-01 -1.238072372143E-01
    138 F   7 N    -1.078440605126E-01 -1.238072372143E-01 -3.646269321030E-02
    139 F   7 N    -4.840368232983E-01  8.734454400400E-02 -3.761927627857E-01
    140 F   7 N    -3.921559394874E-01 -4.286186326977E-01 -1.596317670170E-02
    141 F   7 N    -1.596317670170E-02 -3.921559394874E-01 -4.286186326977E-01
    142 F   7 N     4.126554559960E-01 -7.138136730230E-02 -4.635373067897E-01
    143 F   7 N    -4.635373067897E-01  4.126554559960E-01 -7.138136730230E-02
    144 F   7 N     8.734454400400E-02 -3.761927627857E-01 -4.840368232983E-01
    145 T   6 C     3.542616874844E-01  4.728567289339E-01  4.172814982253E-01
    146 F   6 C    -4.444247692914E-01 -6.301981074090E-02  8.271850177470E-02
    147 F   6 C     1.457383125156E-01 -4.369801892591E-01  1.185950414495E-01
    148 F   6 C    -5.557523070860E-02  2.714327106610E-02  3.814049585505E-01
    149 F   6 C     4.172814982253E-01  3.542616874844E-01  4.728567289339E-01
    150 F   6 C     4.728567289339E-01  4.172814982253E-01  3.542616874844E-01
    151 F   6 C     3.814049585505E-01 -5.557523070860E-02  2.714327106610E-02
    152 F   6 C    -6.301981074090E-02  8.271850177470E-02 -4.444247692914E-01
    153 F   6 C     8.271850177470E-02 -4.444247692914E-01 -6.301981074090E-02
    154 F   6 C    -4.369801892591E-01  1.185950414495E-01  1.457383125156E-01
    155 F   6 C     1.185950414495E-01  1.457383125156E-01 -4.369801892591E-01
    156 F   6 C     2.714327106610E-02  3.814049585505E-01 -5.557523070860E-02
    157 F   6 C    -2.714327106610E-02 -1.457383125156E-01 -8.271850177470E-02
    158 F   6 C     4.369801892591E-01  5.557523070860E-02 -4.172814982253E-01
    159 F   6 C     6.301981074090E-02 -3.542616874844E-01 -3.814049585505E-01
    160 F   6 C    -4.728567289339E-01  4.444247692914E-01 -1.185950414495E-01
    161 F   6 C    -1.457383125156E-01 -8.271850177470E-02 -2.714327106610E-02
    162 F   6 C    -8.271850177470E-02 -2.714327106610E-02 -1.457383125156E-01
    163 F   6 C     4.444247692914E-01 -1.185950414495E-01 -4.728567289339E-01
    164 F   6 C    -4.172814982253E-01  4.369801892591E-01  5.557523070860E-02
    165 F   6 C     5.557523070860E-02 -4.172814982253E-01  4.369801892591E-01
    166 F   6 C    -3.814049585505E-01  6.301981074090E-02 -3.542616874844E-01
    167 F   6 C    -3.542616874844E-01 -3.814049585505E-01  6.301981074090E-02
    168 F   6 C    -1.185950414495E-01 -4.728567289339E-01  4.444247692914E-01
    169 T   5 B     3.964202393199E-01  3.311824920877E-01 -4.853778809718E-01
    170 F   5 B     3.165603730595E-01 -1.182018797083E-01 -1.462211902820E-02
    171 F   5 B     1.035797606801E-01 -3.817981202917E-01 -6.523774723220E-02
    172 F   5 B     1.834396269405E-01  1.688175079123E-01 -4.347622527678E-01
    173 F   5 B    -4.853778809718E-01  3.964202393199E-01  3.311824920877E-01
    174 F   5 B     3.311824920877E-01 -4.853778809718E-01  3.964202393199E-01
    175 F   5 B    -4.347622527678E-01  1.834396269405E-01  1.688175079123E-01
    176 F   5 B    -1.182018797083E-01 -1.462211902820E-02  3.165603730595E-01
    177 F   5 B    -1.462211902820E-02  3.165603730595E-01 -1.182018797083E-01
    178 F   5 B    -3.817981202917E-01 -6.523774723220E-02  1.035797606801E-01
    179 F   5 B    -6.523774723220E-02  1.035797606801E-01 -3.817981202917E-01
    180 F   5 B     1.688175079123E-01 -4.347622527678E-01  1.834396269405E-01
    181 F   5 B    -1.688175079123E-01 -1.035797606801E-01  1.462211902820E-02
    182 F   5 B     3.817981202917E-01 -1.834396269405E-01  4.853778809718E-01
    183 F   5 B     1.182018797083E-01 -3.964202393199E-01  4.347622527678E-01
    184 F   5 B    -3.311824920877E-01 -3.165603730595E-01  6.523774723220E-02
    185 F   5 B    -1.035797606801E-01  1.462211902820E-02 -1.688175079123E-01
    186 F   5 B     1.462211902820E-02 -1.688175079123E-01 -1.035797606801E-01
    187 F   5 B    -3.165603730595E-01  6.523774723220E-02 -3.311824920877E-01
    188 F   5 B     4.853778809718E-01  3.817981202917E-01 -1.834396269405E-01
    189 F   5 B    -1.834396269405E-01  4.853778809718E-01  3.817981202917E-01
    190 F   5 B     4.347622527678E-01  1.182018797083E-01 -3.964202393199E-01
    191 F   5 B    -3.964202393199E-01  4.347622527678E-01  1.182018797083E-01
    192 F   5 B     6.523774723220E-02 -3.311824920877E-01 -3.165603730595E-01
    193 T   6 C     4.309733304942E-01  4.226134328334E-01  3.860258528730E-01
    194 F   6 C    -4.634124200396E-01  4.494747762120E-02  1.139741471270E-01
    195 F   6 C     6.902666950580E-02  4.550525223788E-01 -8.359897660800E-03
    196 F   6 C    -3.658757996040E-02  7.738656716660E-02 -4.916401023392E-01
    197 F   6 C     3.860258528730E-01  4.309733304942E-01  4.226134328334E-01
    198 F   6 C     4.226134328334E-01  3.860258528730E-01  4.309733304942E-01
    199 F   6 C    -4.916401023392E-01 -3.658757996040E-02  7.738656716660E-02
    200 F   6 C     4.494747762120E-02  1.139741471270E-01 -4.634124200396E-01
    201 F   6 C     1.139741471270E-01 -4.634124200396E-01  4.494747762120E-02
    202 F   6 C     4.550525223788E-01 -8.359897660800E-03  6.902666950580E-02
    203 F   6 C    -8.359897660800E-03  6.902666950580E-02  4.550525223788E-01
    204 F   6 C     7.738656716660E-02 -4.916401023392E-01 -3.658757996040E-02
    205 F   6 C    -7.738656716660E-02 -6.902666950580E-02 -1.139741471270E-01
    206 F   6 C    -4.550525223788E-01  3.658757996040E-02 -3.860258528730E-01
    207 F   6 C    -4.494747762120E-02 -4.309733304942E-01  4.916401023392E-01
    208 F   6 C    -4.226134328334E-01  4.634124200396E-01  8.359897660800E-03
    209 F   6 C    -6.902666950580E-02 -1.139741471270E-01 -7.738656716660E-02
    210 F   6 C    -1.139741471270E-01 -7.738656716660E-02 -6.902666950580E-02
    211 F   6 C     4.634124200396E-01  8.359897660800E-03 -4.226134328334E-01
    212 F   6 C    -3.860258528730E-01 -4.550525223788E-01  3.658757996040E-02
    213 F   6 C     3.658757996040E-02 -3.860258528730E-01 -4.550525223788E-01
    214 F   6 C     4.916401023392E-01 -4.494747762120E-02 -4.309733304942E-01
    215 F   6 C    -4.309733304942E-01  4.916401023392E-01 -4.494747762120E-02
    216 F   6 C     8.359897660800E-03 -4.226134328334E-01  4.634124200396E-01
    217 T   1 H     4.283041941211E-01  2.766854181440E-01 -4.697851684669E-01
    218 F   1 H     2.464705866109E-01 -1.019106374120E-01 -3.021483153310E-02
    219 F   1 H     7.169580587893E-02 -3.980893625880E-01 -1.516187759771E-01
    220 F   1 H     2.535294133891E-01  2.233145818560E-01 -3.483812240229E-01
    221 F   1 H    -4.697851684669E-01  4.283041941211E-01  2.766854181440E-01
    222 F   1 H     2.766854181440E-01 -4.697851684669E-01  4.283041941211E-01
    223 F   1 H    -3.483812240229E-01  2.535294133891E-01  2.233145818560E-01
    224 F   1 H    -1.019106374120E-01 -3.021483153310E-02  2.464705866109E-01
    225 F   1 H    -3.021483153310E-02  2.464705866109E-01 -1.019106374120E-01
    226 F   1 H    -3.980893625880E-01 -1.516187759771E-01  7.169580587893E-02
    227 F   1 H    -1.516187759771E-01  7.169580587893E-02 -3.980893625880E-01
    228 F   1 H     2.233145818560E-01 -3.483812240229E-01  2.535294133891E-01
    229 F   1 H    -2.233145818560E-01 -7.169580587893E-02  3.021483153310E-02
    230 F   1 H     3.980893625880E-01 -2.535294133891E-01  4.697851684669E-01
    231 F   1 H     1.019106374120E-01 -4.283041941211E-01  3.483812240229E-01
    232 F   1 H    -2.766854181440E-01 -2.464705866109E-01  1.516187759771E-01
    233 F   1 H    -7.169580587893E-02  3.021483153310E-02 -2.233145818560E-01
    234 F   1 H     3.021483153310E-02 -2.233145818560E-01 -7.169580587893E-02
    235 F   1 H    -2.464705866109E-01  1.516187759771E-01 -2.766854181440E-01
    236 F   1 H     4.697851684669E-01  3.980893625880E-01 -2.535294133891E-01
    237 F   1 H    -2.535294133891E-01  4.697851684669E-01  3.980893625880E-01
    238 F   1 H     3.483812240229E-01  1.019106374120E-01 -4.283041941211E-01
    239 F   1 H    -4.283041941211E-01  3.483812240229E-01  1.019106374120E-01
    240 F   1 H     1.516187759771E-01 -2.766854181440E-01 -2.464705866109E-01
    241 T   6 C     4.099387567634E-01  2.826661894465E-01 -4.525861729905E-01
    242 F   6 C     2.352523624370E-01 -1.374750702461E-01 -4.741382700950E-02
    243 F   6 C     9.006124323662E-02 -3.625249297539E-01 -1.272725673169E-01
    244 F   6 C     2.647476375630E-01  2.173338105535E-01 -3.727274326831E-01
    245 F   6 C    -4.525861729905E-01  4.099387567634E-01  2.826661894465E-01
    246 F   6 C     2.826661894465E-01 -4.525861729905E-01  4.099387567634E-01
    247 F   6 C    -3.727274326831E-01  2.647476375630E-01  2.173338105535E-01
    248 F   6 C    -1.374750702461E-01 -4.741382700950E-02  2.352523624370E-01
    249 F   6 C    -4.741382700950E-02  2.352523624370E-01 -1.374750702461E-01
    250 F   6 C    -3.625249297539E-01 -1.272725673169E-01  9.006124323662E-02
    251 F   6 C    -1.272725673169E-01  9.006124323662E-02 -3.625249297539E-01
    252 F   6 C     2.173338105535E-01 -3.727274326831E-01  2.647476375630E-01
    253 F   6 C    -2.173338105535E-01 -9.006124323662E-02  4.741382700950E-02
    254 F   6 C     3.625249297539E-01 -2.647476375630E-01  4.525861729905E-01
    255 F   6 C     1.374750702461E-01 -4.099387567634E-01  3.727274326831E-01
    256 F   6 C    -2.826661894465E-01 -2.352523624370E-01  1.272725673169E-01
    257 F   6 C    -9.006124323662E-02  4.741382700950E-02 -2.173338105535E-01
    258 F   6 C     4.741382700950E-02 -2.173338105535E-01 -9.006124323662E-02
    259 F   6 C    -2.352523624370E-01  1.272725673169E-01 -2.826661894465E-01
    260 F   6 C     4.525861729905E-01  3.625249297539E-01 -2.647476375630E-01
    261 F   6 C    -2.647476375630E-01  4.525861729905E-01  3.625249297539E-01
    262 F   6 C     3.727274326831E-01  1.374750702461E-01 -4.099387567634E-01
    263 F   6 C    -4.099387567634E-01  3.727274326831E-01  1.374750702461E-01
    264 F   6 C     1.272725673169E-01 -2.826661894465E-01 -2.352523624370E-01
    265 T   6 C     3.672176418302E-01  3.163911501825E-01 -4.353068810375E-01
    266 F   6 C     2.516980312200E-01 -1.974754771323E-01 -6.469311896250E-02
    267 F   6 C     1.327823581698E-01 -3.025245228677E-01 -5.082649164770E-02
    268 F   6 C     2.483019687800E-01  1.836088498175E-01 -4.491735083523E-01
    269 F   6 C    -4.353068810375E-01  3.672176418302E-01  3.163911501825E-01
    270 F   6 C     3.163911501825E-01 -4.353068810375E-01  3.672176418302E-01
    271 F   6 C    -4.491735083523E-01  2.483019687800E-01  1.836088498175E-01
    272 F   6 C    -1.974754771323E-01 -6.469311896250E-02  2.516980312200E-01
    273 F   6 C    -6.469311896250E-02  2.516980312200E-01 -1.974754771323E-01
    274 F   6 C    -3.025245228677E-01 -5.082649164770E-02  1.327823581698E-01
    275 F   6 C    -5.082649164770E-02  1.327823581698E-01 -3.025245228677E-01
    276 F   6 C     1.836088498175E-01 -4.491735083523E-01  2.483019687800E-01
    277 F   6 C    -1.836088498175E-01 -1.327823581698E-01  6.469311896250E-02
    278 F   6 C     3.025245228677E-01 -2.483019687800E-01  4.353068810375E-01
    279 F   6 C     1.974754771323E-01 -3.672176418302E-01  4.491735083523E-01
    280 F   6 C    -3.163911501825E-01 -2.516980312200E-01  5.082649164770E-02
    281 F   6 C    -1.327823581698E-01  6.469311896250E-02 -1.836088498175E-01
    282 F   6 C     6.469311896250E-02 -1.836088498175E-01 -1.327823581698E-01
    283 F   6 C    -2.516980312200E-01  5.082649164770E-02 -3.163911501825E-01
    284 F   6 C     4.353068810375E-01  3.025245228677E-01 -2.483019687800E-01
    285 F   6 C    -2.483019687800E-01  4.353068810375E-01  3.025245228677E-01
    286 F   6 C     4.491735083523E-01  1.974754771323E-01 -3.672176418302E-01
    287 F   6 C    -3.672176418302E-01  4.491735083523E-01  1.974754771323E-01
    288 F   6 C     5.082649164770E-02 -3.163911501825E-01 -2.516980312200E-01
    289 T   6 C     3.619597223229E-01  2.965152391027E-01 -4.098320314350E-01
    290 F   6 C     2.063472705377E-01 -2.282082462421E-01 -9.016796856500E-02
    291 F   6 C     1.380402776771E-01 -2.717917537579E-01 -6.544448322020E-02
    292 F   6 C     2.936527294623E-01  2.034847608973E-01 -4.345555167798E-01
    293 F   6 C    -4.098320314350E-01  3.619597223229E-01  2.965152391027E-01
    294 F   6 C     2.965152391027E-01 -4.098320314350E-01  3.619597223229E-01
    295 F   6 C    -4.345555167798E-01  2.936527294623E-01  2.034847608973E-01
    296 F   6 C    -2.282082462421E-01 -9.016796856500E-02  2.063472705377E-01
    297 F   6 C    -9.016796856500E-02  2.063472705377E-01 -2.282082462421E-01
    298 F   6 C    -2.717917537579E-01 -6.544448322020E-02  1.380402776771E-01
    299 F   6 C    -6.544448322020E-02  1.380402776771E-01 -2.717917537579E-01
    300 F   6 C     2.034847608973E-01 -4.345555167798E-01  2.936527294623E-01
    301 F   6 C    -2.034847608973E-01 -1.380402776771E-01  9.016796856500E-02
    302 F   6 C     2.717917537579E-01 -2.936527294623E-01  4.098320314350E-01
    303 F   6 C     2.282082462421E-01 -3.619597223229E-01  4.345555167798E-01
    304 F   6 C    -2.965152391027E-01 -2.063472705377E-01  6.544448322020E-02
    305 F   6 C    -1.380402776771E-01  9.016796856500E-02 -2.034847608973E-01
    306 F   6 C     9.016796856500E-02 -2.034847608973E-01 -1.380402776771E-01
    307 F   6 C    -2.063472705377E-01  6.544448322020E-02 -2.965152391027E-01
    308 F   6 C     4.098320314350E-01  2.717917537579E-01 -2.936527294623E-01
    309 F   6 C    -2.936527294623E-01  4.098320314350E-01  2.717917537579E-01
    310 F   6 C     4.345555167798E-01  2.282082462421E-01 -3.619597223229E-01
    311 F   6 C    -3.619597223229E-01  4.345555167798E-01  2.282082462421E-01
    312 F   6 C     6.544448322020E-02 -2.965152391027E-01 -2.063472705377E-01
    313 T   6 C     3.813147295816E-01  2.700350676143E-01 -4.045947950085E-01
    314 F   6 C     1.746298626228E-01 -2.140904754099E-01 -9.540520499150E-02
    315 F   6 C     1.186852704184E-01 -2.859095245901E-01 -1.112796619673E-01
    316 F   6 C     3.253701373772E-01  2.299649323857E-01 -3.887203380327E-01
    317 F   6 C    -4.045947950085E-01  3.813147295816E-01  2.700350676143E-01
    318 F   6 C     2.700350676143E-01 -4.045947950085E-01  3.813147295816E-01
    319 F   6 C    -3.887203380327E-01  3.253701373772E-01  2.299649323857E-01
    320 F   6 C    -2.140904754099E-01 -9.540520499150E-02  1.746298626228E-01
    321 F   6 C    -9.540520499150E-02  1.746298626228E-01 -2.140904754099E-01
    322 F   6 C    -2.859095245901E-01 -1.112796619673E-01  1.186852704184E-01
    323 F   6 C    -1.112796619673E-01  1.186852704184E-01 -2.859095245901E-01
    324 F   6 C     2.299649323857E-01 -3.887203380327E-01  3.253701373772E-01
    325 F   6 C    -2.299649323857E-01 -1.186852704184E-01  9.540520499150E-02
    326 F   6 C     2.859095245901E-01 -3.253701373772E-01  4.045947950085E-01
    327 F   6 C     2.140904754099E-01 -3.813147295816E-01  3.887203380327E-01
    328 F   6 C    -2.700350676143E-01 -1.746298626228E-01  1.112796619673E-01
    329 F   6 C    -1.186852704184E-01  9.540520499150E-02 -2.299649323857E-01
    330 F   6 C     9.540520499150E-02 -2.299649323857E-01 -1.186852704184E-01
    331 F   6 C    -1.746298626228E-01  1.112796619673E-01 -2.700350676143E-01
    332 F   6 C     4.045947950085E-01  2.859095245901E-01 -3.253701373772E-01
    333 F   6 C    -3.253701373772E-01  4.045947950085E-01  2.859095245901E-01
    334 F   6 C     3.887203380327E-01  2.140904754099E-01 -3.813147295816E-01
    335 F   6 C    -3.813147295816E-01  3.887203380327E-01  2.140904754099E-01
    336 F   6 C     1.112796619673E-01 -2.700350676143E-01 -1.746298626228E-01
    337 T   1 H     4.189824727195E-01  2.414635957708E-01 -4.242293504961E-01
    338 F   1 H     1.656929462669E-01 -1.567881767844E-01 -7.577064950390E-02
    339 F   1 H     8.101752728050E-02 -3.432118232156E-01 -1.775188769487E-01
    340 F   1 H     3.343070537331E-01  2.585364042292E-01 -3.224811230513E-01
    341 F   1 H    -4.242293504961E-01  4.189824727195E-01  2.414635957708E-01
    342 F   1 H     2.414635957708E-01 -4.242293504961E-01  4.189824727195E-01
    343 F   1 H    -3.224811230513E-01  3.343070537331E-01  2.585364042292E-01
    344 F   1 H    -1.567881767844E-01 -7.577064950390E-02  1.656929462669E-01
    345 F   1 H    -7.577064950390E-02  1.656929462669E-01 -1.567881767844E-01
    346 F   1 H    -3.432118232156E-01 -1.775188769487E-01  8.101752728050E-02
    347 F   1 H    -1.775188769487E-01  8.101752728050E-02 -3.432118232156E-01
    348 F   1 H     2.585364042292E-01 -3.224811230513E-01  3.343070537331E-01
    349 F   1 H    -2.585364042292E-01 -8.101752728050E-02  7.577064950390E-02
    350 F   1 H     3.432118232156E-01 -3.343070537331E-01  4.242293504961E-01
    351 F   1 H     1.567881767844E-01 -4.189824727195E-01  3.224811230513E-01
    352 F   1 H    -2.414635957708E-01 -1.656929462669E-01  1.775188769487E-01
    353 F   1 H    -8.101752728050E-02  7.577064950390E-02 -2.585364042292E-01
    354 F   1 H     7.577064950390E-02 -2.585364042292E-01 -8.101752728050E-02
    355 F   1 H    -1.656929462669E-01  1.775188769487E-01 -2.414635957708E-01
    356 F   1 H     4.242293504961E-01  3.432118232156E-01 -3.343070537331E-01
    357 F   1 H    -3.343070537331E-01  4.242293504961E-01  3.432118232156E-01
    358 F   1 H     3.224811230513E-01  1.567881767844E-01 -4.189824727195E-01
    359 F   1 H    -4.189824727195E-01  3.224811230513E-01  1.567881767844E-01
[...]
 430 C    6  0.000  0.000  0.000 -0.000 -0.000  0.000 -0.000
 431 C    6  0.000  0.000  0.000 -0.000 -0.000  0.000 -0.000
 432 C    6  0.000  0.000  0.000 -0.000 -0.000  0.000 -0.000
 433 H    1 -0.000 -0.000  0.000 -0.000
 434 H    1 -0.000 -0.000  0.000 -0.000
 435 H    1 -0.000 -0.000  0.000 -0.000
 436 H    1 -0.000 -0.000  0.000 -0.000
 437 H    1 -0.000 -0.000  0.000 -0.000
 438 H    1 -0.000 -0.000  0.000 -0.000
 439 H    1 -0.000 -0.000  0.000 -0.000
 440 H    1 -0.000 -0.000  0.000 -0.000
 441 H    1 -0.000 -0.000  0.000 -0.000
 442 H    1 -0.000 -0.000  0.000 -0.000
 443 H    1 -0.000 -0.000  0.000 -0.000
 444 H    1 -0.000 -0.000  0.000 -0.000
 445 H    1 -0.000 -0.000  0.000 -0.000
 446 H    1 -0.000 -0.000  0.000 -0.000
 447 H    1 -0.000 -0.000  0.000 -0.000
 448 H    1 -0.000 -0.000  0.000 -0.000
 449 H    1 -0.000 -0.000  0.000 -0.000
 450 H    1 -0.000 -0.000  0.000 -0.000
 451 H    1 -0.000 -0.000  0.000 -0.000
 452 H    1 -0.000 -0.000  0.000 -0.000
 453 H    1 -0.000 -0.000  0.000 -0.000
 454 H    1 -0.000 -0.000  0.000 -0.000
 455 H    1 -0.000 -0.000  0.000 -0.000
 456 H    1 -0.000 -0.000  0.000 -0.000
 457 NI  28 -0.000  0.000  0.000  0.000 -0.000  0.000 -0.000  0.000 -0.000
                   -0.000 -0.000 -0.000
 458 NI  28 -0.000  0.000  0.000  0.000 -0.000  0.000 -0.000  0.000 -0.000
                   -0.000 -0.000 -0.000
 459 NI  28 -0.000  0.000  0.000  0.000 -0.000  0.000 -0.000  0.000 -0.000
                   -0.000 -0.000 -0.000
 460 NI  28 -0.000  0.000  0.000  0.000 -0.000  0.000 -0.000  0.000 -0.000
                   -0.000 -0.000 -0.000
 461 NI  28 -0.000  0.000  0.000  0.000 -0.000  0.000 -0.000  0.000 -0.000
                   -0.000 -0.000 -0.000
 462 NI  28 -0.000  0.000  0.000  0.000 -0.000  0.000 -0.000  0.000 -0.000
                   -0.000 -0.000 -0.000
 463 NI  28 -0.000  0.000  0.000  0.000 -0.000  0.000 -0.000  0.000 -0.000
                   -0.000 -0.000 -0.000
 464 NI  28 -0.000  0.000  0.000  0.000 -0.000  0.000 -0.000  0.000 -0.000
                   -0.000 -0.000 -0.000
 465 NI  28 -0.000  0.000  0.000  0.000 -0.000  0.000 -0.000  0.000 -0.000
                   -0.000 -0.000 -0.000
 466 NI  28 -0.000  0.000  0.000  0.000 -0.000  0.000 -0.000  0.000 -0.000
                   -0.000 -0.000 -0.000
 467 NI  28 -0.000  0.000  0.000  0.000 -0.000  0.000 -0.000  0.000 -0.000
                   -0.000 -0.000 -0.000
 468 NI  28 -0.000  0.000  0.000  0.000 -0.000  0.000 -0.000  0.000 -0.000
                   -0.000 -0.000 -0.000
 469 NI  28 -0.000  0.000  0.000  0.000 -0.000  0.000 -0.000  0.000 -0.000
                   -0.000 -0.000 -0.000
 470 NI  28 -0.000  0.000  0.000  0.000 -0.000  0.000 -0.000  0.000 -0.000
                   -0.000 -0.000 -0.000
 471 NI  28 -0.000  0.000  0.000  0.000 -0.000  0.000 -0.000  0.000 -0.000
                   -0.000 -0.000 -0.000
 472 NI  28 -0.000  0.000  0.000  0.000 -0.000  0.000 -0.000  0.000 -0.000
                   -0.000 -0.000 -0.000
 473 NI  28 -0.000  0.000  0.000  0.000 -0.000  0.000 -0.000  0.000 -0.000
                   -0.000 -0.000 -0.000
 474 NI  28 -0.000  0.000  0.000  0.000 -0.000  0.000 -0.000  0.000 -0.000
                   -0.000 -0.000 -0.000
 475 NI  28 -0.000  0.000  0.000  0.000 -0.000  0.000 -0.000  0.000 -0.000
                   -0.000 -0.000 -0.000
 476 NI  28 -0.000  0.000  0.000  0.000 -0.000  0.000 -0.000  0.000 -0.000
                   -0.000 -0.000 -0.000
 477 NI  28 -0.000  0.000  0.000  0.000 -0.000  0.000 -0.000  0.000 -0.000
                   -0.000 -0.000 -0.000
 478 NI  28 -0.000  0.000  0.000  0.000 -0.000  0.000 -0.000  0.000 -0.000
                   -0.000 -0.000 -0.000
 479 NI  28 -0.000  0.000  0.000  0.000 -0.000  0.000 -0.000  0.000 -0.000
                   -0.000 -0.000 -0.000
 480 NI  28 -0.000  0.000  0.000  0.000 -0.000  0.000 -0.000  0.000 -0.000
                   -0.000 -0.000 -0.000
 481 CL  17  0.000 -0.000 -0.000 -0.000 -0.000  0.000  0.000  0.000  0.000
 482 CL  17  0.000 -0.000 -0.000 -0.000 -0.000  0.000  0.000  0.000  0.000
 483 CL  17  0.000 -0.000 -0.000 -0.000 -0.000  0.000  0.000  0.000  0.000
 484 CL  17  0.000 -0.000 -0.000 -0.000 -0.000  0.000  0.000  0.000  0.000
 485 CL  17  0.000 -0.000 -0.000 -0.000 -0.000  0.000  0.000  0.000  0.000
 486 CL  17  0.000 -0.000 -0.000 -0.000 -0.000  0.000  0.000  0.000  0.000
 487 CL  17  0.000 -0.000 -0.000 -0.000 -0.000  0.000  0.000  0.000  0.000
 488 CL  17  0.000 -0.000 -0.000 -0.000 -0.000  0.000  0.000  0.000  0.000
 489 CL  17  0.000 -0.000 -0.000 -0.000 -0.000  0.000  0.000  0.000  0.000
 490 CL  17  0.000 -0.000 -0.000 -0.000 -0.000  0.000  0.000  0.000  0.000
 491 CL  17  0.000 -0.000 -0.000 -0.000 -0.000  0.000  0.000  0.000  0.000
 492 CL  17  0.000 -0.000 -0.000 -0.000 -0.000  0.000  0.000  0.000  0.000
 493 CL  17  0.000 -0.000 -0.000 -0.000 -0.000  0.000  0.000  0.000  0.000
 494 CL  17  0.000 -0.000 -0.000 -0.000 -0.000  0.000  0.000  0.000  0.000
 495 CL  17  0.000 -0.000 -0.000 -0.000 -0.000  0.000  0.000  0.000  0.000
 496 CL  17  0.000 -0.000 -0.000 -0.000 -0.000  0.000  0.000  0.000  0.000
 497 CL  17  0.000 -0.000 -0.000 -0.000 -0.000  0.000  0.000  0.000  0.000
 498 CL  17  0.000 -0.000 -0.000 -0.000 -0.000  0.000  0.000  0.000  0.000
 499 CL  17  0.000 -0.000 -0.000 -0.000 -0.000  0.000  0.000  0.000  0.000
 500 CL  17  0.000 -0.000 -0.000 -0.000 -0.000  0.000  0.000  0.000  0.000
 501 CL  17  0.000 -0.000 -0.000 -0.000 -0.000  0.000  0.000  0.000  0.000
 502 CL  17  0.000 -0.000 -0.000 -0.000 -0.000  0.000  0.000  0.000  0.000
 503 CL  17  0.000 -0.000 -0.000 -0.000 -0.000  0.000  0.000  0.000  0.000
 504 CL  17  0.000 -0.000 -0.000 -0.000 -0.000  0.000  0.000  0.000  0.000
 505 CL  17  0.000  0.000  0.000  0.000 -0.000  0.000  0.000  0.000 -0.000
 506 CL  17  0.000  0.000  0.000  0.000 -0.000  0.000  0.000  0.000 -0.000
 507 CL  17  0.000  0.000  0.000  0.000 -0.000  0.000  0.000  0.000 -0.000
 508 CL  17  0.000  0.000  0.000  0.000 -0.000  0.000  0.000  0.000 -0.000
 509 CL  17  0.000  0.000  0.000  0.000 -0.000  0.000  0.000  0.000 -0.000
 510 CL  17  0.000  0.000  0.000  0.000 -0.000  0.000  0.000  0.000 -0.000
 511 CL  17  0.000  0.000  0.000  0.000 -0.000  0.000  0.000  0.000 -0.000
 512 CL  17  0.000  0.000  0.000  0.000 -0.000  0.000  0.000  0.000 -0.000
 513 CL  17  0.000  0.000  0.000  0.000 -0.000  0.000  0.000  0.000 -0.000
 514 CL  17  0.000  0.000  0.000  0.000 -0.000  0.000  0.000  0.000 -0.000
 515 CL  17  0.000  0.000  0.000  0.000 -0.000  0.000  0.000  0.000 -0.000
 516 CL  17  0.000  0.000  0.000  0.000 -0.000  0.000  0.000  0.000 -0.000
 517 CL  17  0.000  0.000  0.000  0.000 -0.000  0.000  0.000  0.000 -0.000
 518 CL  17  0.000  0.000  0.000  0.000 -0.000  0.000  0.000  0.000 -0.000
 519 CL  17  0.000  0.000  0.000  0.000 -0.000  0.000  0.000  0.000 -0.000
 520 CL  17  0.000  0.000  0.000  0.000 -0.000  0.000  0.000  0.000 -0.000
 521 CL  17  0.000  0.000  0.000  0.000 -0.000  0.000  0.000  0.000 -0.000
 522 CL  17  0.000  0.000  0.000  0.000 -0.000  0.000  0.000  0.000 -0.000
 523 CL  17  0.000  0.000  0.000  0.000 -0.000  0.000  0.000  0.000 -0.000
 524 CL  17  0.000  0.000  0.000  0.000 -0.000  0.000  0.000  0.000 -0.000
 525 CL  17  0.000  0.000  0.000  0.000 -0.000  0.000  0.000  0.000 -0.000
 526 CL  17  0.000  0.000  0.000  0.000 -0.000  0.000  0.000  0.000 -0.000
 527 CL  17  0.000  0.000  0.000  0.000 -0.000  0.000  0.000  0.000 -0.000
 528 CL  17  0.000  0.000  0.000  0.000 -0.000  0.000  0.000  0.000 -0.000
 529 C    6  0.000 -0.000 -0.000  0.000 -0.000  0.000 -0.000
 530 C    6  0.000 -0.000 -0.000  0.000 -0.000  0.000 -0.000
 531 C    6  0.000 -0.000 -0.000  0.000 -0.000  0.000 -0.000
 532 C    6  0.000 -0.000 -0.000  0.000 -0.000  0.000 -0.000
 533 C    6  0.000 -0.000 -0.000  0.000 -0.000  0.000 -0.000
 534 C    6  0.000 -0.000 -0.000  0.000 -0.000  0.000 -0.000

 OVERLAP POPULATION CONDENSED TO ATOMS FOR FIRST   6 NEIGHBORS

 ATOM A   1 O    ATOM B     CELL      R(AB)/AU R(AB)/ANG    OVPOP(AB)
                 49 C    (  0  0  0)     2.524     1.336     0.000
                173 B    (  0  0  0)     2.670     1.413     0.000
                150 C    (  0  0  0)     4.268     2.259     0.000
                101 O    (  0  0  0)     4.357     2.306    -0.000
                121 N    (  0  0  0)     4.470     2.365     0.000
                389 C    (  0  0  0)     4.877     2.581     0.000

 ATOM A  25 N    ATOM B     CELL      R(AB)/AU R(AB)/ANG    OVPOP(AB)
                150 C    (  0  0  0)     2.445     1.294    -0.000
                193 C    (  0  0  0)     2.573     1.362    -0.000
                101 O    (  0  0  0)     4.491     2.377    -0.000
                 49 C    (  0  0  0)     4.519     2.391     0.000
                 73 C    (  0  0  0)     4.543     2.404    -0.000
                 78 C    (  0  0  0)     4.596     2.432     0.000

 ATOM A  49 C    ATOM B     CELL      R(AB)/AU R(AB)/ANG    OVPOP(AB)
                121 N    (  0  0  0)     2.467     1.305    -0.000
                  1 O    (  0  0  0)     2.524     1.336     0.000
                150 C    (  0  0  0)     2.671     1.413    -0.000
                173 B    (  0  0  0)     4.130     2.185    -0.000
                101 O    (  0  0  0)     4.239     2.243    -0.000
                 78 C    (  0  0  0)     4.286     2.268     0.000

 ATOM A  73 C    ATOM B     CELL      R(AB)/AU R(AB)/ANG    OVPOP(AB)
                125 N    (  0  0  0)     2.588     1.370    -0.000
                197 C    (  0  0  0)     2.660     1.408     0.000
                193 C    (  0  0  0)     2.718     1.438     0.000
                 53 C    (  0  0  0)     4.286     2.268     0.000
                 25 N    (  0  0  0)     4.543     2.404    -0.000
                 29 N    (  0  0  0)     4.596     2.432     0.000

 ATOM A  97 O    ATOM B     CELL      R(AB)/AU R(AB)/ANG    OVPOP(AB)
                149 C    (  0  0  0)     2.559     1.354     0.000
                169 B    (  0  0  0)     2.651     1.403     0.000
                 54 C    (  0  0  0)     4.239     2.243    -0.000
                  6 O    (  0  0  0)     4.357     2.306    -0.000
                 30 N    (  0  0  0)     4.491     2.377    -0.000
                385 C    (  0  0  0)     4.924     2.606     0.000

 ATOM A 121 N    ATOM B     CELL      R(AB)/AU R(AB)/ANG    OVPOP(AB)
                 49 C    (  0  0  0)     2.467     1.305    -0.000
                 78 C    (  0  0  0)     2.588     1.370    -0.000
                473 NI   (  0  0  0)     3.451     1.826     0.000
                  1 O    (  0  0  0)     4.470     2.365     0.000
                150 C    (  0  0  0)     4.503     2.383     0.000
                193 C    (  0  0  0)     4.549     2.407     0.000

 ATOM A 145 C    ATOM B     CELL      R(AB)/AU R(AB)/ANG    OVPOP(AB)
                 29 N    (  0  0  0)     2.445     1.294    -0.000
                102 O    (  0  0  0)     2.559     1.354     0.000
                 53 C    (  0  0  0)     2.671     1.413    -0.000
                174 B    (  0  0  0)     4.163     2.203    -0.000
                197 C    (  0  0  0)     4.220     2.233     0.000
                  5 O    (  0  0  0)     4.268     2.259     0.000

 ATOM A 169 B    ATOM B     CELL      R(AB)/AU R(AB)/ANG    OVPOP(AB)
                 97 O    (  0  0  0)     2.651     1.403     0.000
                  6 O    (  0  0  0)     2.670     1.413     0.000
                385 C    (  0  0  0)     2.862     1.515    -0.000
                 54 C    (  0  0  0)     4.130     2.185    -0.000
                149 C    (  0  0  0)     4.163     2.203    -0.000
                265 C    (  0  0  0)     4.776     2.528     0.000

 ATOM A 193 C    ATOM B     CELL      R(AB)/AU R(AB)/ANG    OVPOP(AB)
                 25 N    (  0  0  0)     2.573     1.362    -0.000
                 78 C    (  0  0  0)     2.660     1.408     0.000
                 73 C    (  0  0  0)     2.718     1.438     0.000
                150 C    (  0  0  0)     4.220     2.233     0.000
                121 N    (  0  0  0)     4.549     2.407     0.000
                125 N    (  0  0  0)     4.567     2.417     0.000

 ATOM A 217 H    ATOM B     CELL      R(AB)/AU R(AB)/ANG    OVPOP(AB)
                241 C    (  0  0  0)     2.059     1.089     0.000
                409 C    (  0  0  0)     4.062     2.149     0.000
                385 C    (  0  0  0)     4.072     2.155    -0.000
                337 H    (  0  0  0)     4.663     2.468    -0.000
                169 B    (  0  0  0)     5.192     2.747     0.000
                 97 O    (  0  0  0)     5.206     2.755     0.000

 ATOM A 241 C    ATOM B     CELL      R(AB)/AU R(AB)/ANG    OVPOP(AB)
                217 H    (  0  0  0)     2.059     1.089     0.000
                409 C    (  0  0  0)     2.629     1.391    -0.000
                385 C    (  0  0  0)     2.643     1.398    -0.000
                337 H    (  0  0  0)     4.061     2.149     0.000
                265 C    (  0  0  0)     4.553     2.409    -0.000
                313 C    (  0  0  0)     4.572     2.419    -0.000

 ATOM A 265 C    ATOM B     CELL      R(AB)/AU R(AB)/ANG    OVPOP(AB)
                433 H    (  0  0  0)     2.059     1.090     0.000
                289 C    (  0  0  0)     2.617     1.385    -0.000
                385 C    (  0  0  0)     2.653     1.404     0.000
                361 H    (  0  0  0)     4.064     2.150    -0.000
                241 C    (  0  0  0)     4.553     2.409    -0.000
                313 C    (  0  0  0)     4.586     2.427    -0.000

 ATOM A 289 C    ATOM B     CELL      R(AB)/AU R(AB)/ANG    OVPOP(AB)
                361 H    (  0  0  0)     2.060     1.090    -0.000
                265 C    (  0  0  0)     2.617     1.385    -0.000
                313 C    (  0  0  0)     2.654     1.405    -0.000
                433 H    (  0  0  0)     4.062     2.149    -0.000
                409 C    (  0  0  0)     4.551     2.408    -0.000
                356 H    (  0  0  0)     4.560     2.413     0.000

 ATOM A 313 C    ATOM B     CELL      R(AB)/AU R(AB)/ANG    OVPOP(AB)
                409 C    (  0  0  0)     2.637     1.395     0.000
                289 C    (  0  0  0)     2.654     1.405    -0.000
                533 C    (  0  0  0)     2.898     1.534    -0.000
                361 H    (  0  0  0)     4.071     2.154    -0.000
                337 H    (  0  0  0)     4.071     2.154     0.000
                241 C    (  0  0  0)     4.572     2.419    -0.000

 ATOM A 337 H    ATOM B     CELL      R(AB)/AU R(AB)/ANG    OVPOP(AB)
                409 C    (  0  0  0)     2.056     1.088    -0.000
                241 C    (  0  0  0)     4.061     2.149     0.000
                313 C    (  0  0  0)     4.071     2.154     0.000
                310 C    (  0  0  0)     4.560     2.413     0.000
                217 H    (  0  0  0)     4.663     2.468    -0.000
                334 C    (  0  0  0)     4.697     2.486     0.000

 ATOM A 361 H    ATOM B     CELL      R(AB)/AU R(AB)/ANG    OVPOP(AB)
                289 C    (  0  0  0)     2.060     1.090    -0.000
                265 C    (  0  0  0)     4.064     2.150    -0.000
                313 C    (  0  0  0)     4.071     2.154    -0.000
                433 H    (  0  0  0)     4.687     2.480    -0.000
                316 C    (  0  0  0)     4.809     2.545    -0.000
                356 H    (  0  0  0)     4.820     2.551    -0.000

 ATOM A 385 C    ATOM B     CELL      R(AB)/AU R(AB)/ANG    OVPOP(AB)
                241 C    (  0  0  0)     2.643     1.398    -0.000
                265 C    (  0  0  0)     2.653     1.404     0.000
                169 B    (  0  0  0)     2.862     1.515    -0.000
                217 H    (  0  0  0)     4.072     2.155    -0.000
                433 H    (  0  0  0)     4.081     2.159     0.000
                289 C    (  0  0  0)     4.575     2.421     0.000

 ATOM A 409 C    ATOM B     CELL      R(AB)/AU R(AB)/ANG    OVPOP(AB)
                337 H    (  0  0  0)     2.056     1.088    -0.000
                241 C    (  0  0  0)     2.629     1.391    -0.000
                313 C    (  0  0  0)     2.637     1.395     0.000
                217 H    (  0  0  0)     4.062     2.149     0.000
                289 C    (  0  0  0)     4.551     2.408    -0.000
                385 C    (  0  0  0)     4.586     2.427     0.000

 ATOM A 433 H    ATOM B     CELL      R(AB)/AU R(AB)/ANG    OVPOP(AB)
                265 C    (  0  0  0)     2.059     1.090     0.000
                289 C    (  0  0  0)     4.062     2.149    -0.000
                385 C    (  0  0  0)     4.081     2.159     0.000
                361 H    (  0  0  0)     4.687     2.480    -0.000
                  6 O    (  0  0  0)     4.985     2.638    -0.000
                169 B    (  0  0  0)     5.140     2.720    -0.000

 ATOM A 457 NI   ATOM B     CELL      R(AB)/AU R(AB)/ANG    OVPOP(AB)
                137 N    (  0  0  0)     3.451     1.826     0.000
                505 CL   (  0  0  0)     3.985     2.109     0.000
                481 CL   (  0  0  0)     4.005     2.120    -0.000
                 37 N    (  0  0  0)     4.776     2.528    -0.000
                 65 C    (  0  0  0)     5.152     2.726     0.000
                 85 C    (  0  0  0)     5.343     2.827     0.000

 ATOM A 481 CL   ATOM B     CELL      R(AB)/AU R(AB)/ANG    OVPOP(AB)
                457 NI   (  0  0  0)     4.005     2.120    -0.000
                137 N    (  0  0  0)     5.530     2.926     0.000
                 37 N    (  0  0  0)     5.827     3.084    -0.000
                 85 C    (  0  0  0)     6.538     3.460    -0.000
                205 C    (  0  0  0)     6.604     3.495     0.000
                 65 C    (  0  0  0)     7.110     3.762     0.000

 ATOM A 505 CL   ATOM B     CELL      R(AB)/AU R(AB)/ANG    OVPOP(AB)
                457 NI   (  0  0  0)     3.985     2.109     0.000
                137 N    (  0  0  0)     5.517     2.919    -0.000
                 17 O    (  0  0  0)     6.276     3.321    -0.000
                 65 C    (  0  0  0)     6.344     3.357     0.000
                 37 N    (  0  0  0)     6.957     3.682    -0.000
                 85 C    (  0  0  0)     7.422     3.927    -0.000

 ATOM A 529 C    ATOM B     CELL      R(AB)/AU R(AB)/ANG    OVPOP(AB)
                320 C    (  0  0  0)     2.898     1.534    -0.000
                296 C    (  0  0  0)     4.761     2.519     0.000
                416 C    (  0  0  0)     4.875     2.580     0.000
                368 H    (  0  0  0)     5.067     2.681    -0.000
                344 H    (  0  0  0)     5.293     2.801    -0.000
                272 C    (  0  0  0)     7.197     3.809     0.000
 EIGENVECTORS IN FORTRAN UNIT 10
 TTTTTTTTTTTTTTTTTTTTTTTTTTTTTT END         TELAPSE      730.92 TCPU      724.60
 MMMMM END         USED MEM(MB)     87.05 MAX MEM    327.42 TOT MEM      2089.15
 EEEEEEEEEE TERMINATION  DATE 28 04 2025 TIME 16:50:12.7
NODE    0 CPU TIME =       724.601
NODE    1 CPU TIME =       724.311
NODE    2 CPU TIME =       724.947
NODE    3 CPU TIME =       724.597
NODE    4 CPU TIME =       724.546
NODE    5 CPU TIME =       724.837
NODE    6 CPU TIME =       724.630
NODE    7 CPU TIME =       724.454
NODE    8 CPU TIME =       724.086
NODE    9 CPU TIME =       724.321
NODE   10 CPU TIME =       724.994
NODE   11 CPU TIME =       724.529
NODE   12 CPU TIME =       724.222
NODE   13 CPU TIME =       724.626
NODE   14 CPU TIME =       721.872
NODE   15 CPU TIME =       725.239
NODE   16 CPU TIME =       723.355
NODE   17 CPU TIME =       721.698
NODE   18 CPU TIME =       724.909
NODE   19 CPU TIME =       721.824
NODE   20 CPU TIME =       724.983
NODE   21 CPU TIME =       724.180
NODE   22 CPU TIME =       721.522
NODE   23 CPU TIME =       724.887
    TOTAL CPU TIME =     17378.170
