 PROCESS            0  OF           24  WORKING
 PROCESS            2  OF           24  WORKING
 PROCESS            3  OF           24  WORKING
 PROCESS            4  OF           24  WORKING
 PROCESS            5  OF           24  WORKING
 PROCESS            6  OF           24  WORKING
 PROCESS            7  OF           24  WORKING
 PROCESS            8  OF           24  WORKING
 PROCESS            9  OF           24  WORKING
 PROCESS           10  OF           24  WORKING
 PROCESS           11  OF           24  WORKING
 PROCESS           12  OF           24  WORKING
 PROCESS           13  OF           24  WORKING
 PROCESS           14  OF           24  WORKING
 PROCESS           15  OF           24  WORKING
 PROCESS           16  OF           24  WORKING
 PROCESS           17  OF           24  WORKING
 PROCESS           18  OF           24  WORKING
 PROCESS           19  OF           24  WORKING
 PROCESS           20  OF           24  WORKING
 PROCESS           21  OF           24  WORKING
 PROCESS           22  OF           24  WORKING
 PROCESS           23  OF           24  WORKING
 PROCESS            1  OF           24  WORKING

         
 *******************************************************************************
 *                                                                             *
 *                               CRYSTAL23                                     *
 *                      public : 1.0.1 - October 2022                          *
 *                       HTTP://WWW.CRYSTAL.UNITO.IT                           *
 *                                                                             *
 *                              MAIN AUTHORS                                   *
 *                                                                             *
 *  R. DOVESI(1,11), V.R. SAUNDERS(2), C. ROETTI(1,11), R. ORLANDO(1,11),      *
 *  C.M. ZICOVICH-WILSON(1,3), F. PASCALE(4), B. CIVALLERI(1,11),              *
 *  K. DOLL(5), N.M. HARRISON(6), I.J. BUSH(7), Ph. D'ARCO(8),                 *
 *  M. LLUNELL(9), M. CAUSA'(10), Y. NOEL(8), L. MASCHIO(1,11), A. ERBA(1,11)  *
 *  M. RE'RAT(14), S. CASASSA(1,11), B.G. SEARLE(2), J.K. DESMARAIS(1)         *
 *                                                                             *
 *        CONTRIBUTIONS TO THE CODE HAVE ALSO BEEN GIVEN BY                    *
 *                                                                             *
 *  M. FERRABONE(1,11), M. DE LA PIERRE(1,11), M. FERRERO(1,11),               *
 *  J. BAIMA(1,11), E. ALBANESE(1,11), M.F. PEINTINGER(12), R. BAST(13),       *
 *  B. KIRTMAN(15), V. LACIVITA(1,11), R. DEMICHELIS(1,16)                     *
 *  G. BRANDEBURG(17), S. SALUSTRO(1,11), G. SANSONE(1,11)                     *
 *  M.T. RUGGIERO(18), L.E. DAGA(1), L. DONA'(1), A. COSSARD(1)                *
 *                                                                             *
 * (1) THEORETICAL CHEMISTRY GROUP - UNIVERSITA' DI TORINO - TORINO (ITALY)    *
 * (2) SCIENTIFIC COMPUTING DEPARTMENT - STFC DARESBURY (UK)                   *
 * (3) UNIVERSIDAD AUTONOMA DEL ESTADO DE MORELOS - CUERNAVACA (MEXICO)        *
 * (4) UNIVERSITE' DE LORRAINE - NANCY (FRANCE)                                *
 * (5) UNIVERSITAET STUTTGART- STUTTGART (GERMANY)                             *
 * (6) IMPERIAL COLLEGE - LONDON (UK)                                          *
 * (7) SCIENTIFIC COMPUTING DEPARTMENT - STFC RAL (UK)                         *
 * (8) UPMC - SORBONNE UNIVERSITES - PARIS (FRANCE)                            *
 * (9) UNIVERSIDAD DE BARCELONA - BARCELONA (SPAIN)                            *
 *(10) UNIVERSITA' DI NAPOLI "FEDERICO II" - NAPOLI (ITALY)                    *
 *(11) NIS - NANOSTRUCTURED INTERFACES AND SURFACES - TORINO (ITALY)           *
 *(12) MPI FUER CHEMISCHE ENERGIEKONVERSION - MUELHEIM AN DER RUHR (GERMANY)   *
 *(13) UNIVERSITY OF TROMSO - TROMSO (NORWAY)                                  *
 *(14) UNIVERSITE' DE PAU ET DES PAYS DE L'ADOUR - PAU (FRANCE)                *
 *(15) UNIVERSITY OF CALIFORNIA SANTA BARBARA - SANTA BARBARA (USA)            *
 *(16) CURTIN UNIVERSITY - PERTH (AUSTRALIA)                                   *
 *(17) UNIVERSITY COLLEGE LONDON - LONDON (UK)                                 *
 *(18) UNIVERSITY OF VERMONT - BURLINGTON (USA)                                *
 *                                                                             *
 *******************************************************************************
 EEEEEEEEEE STARTING  DATE 28 04 2025 TIME 16:38:03.7
 PdCltryCOF102_sym                                                               

 CRYSTAL CALCULATION
 (INPUT ACCORDING TO THE INTERNATIONAL TABLES FOR X-RAY CRYSTALLOGRAPHY)
 CRYSTAL FAMILY                       :  CUBIC       
 CRYSTAL CLASS  (GROTH - 1921)        :  CUBIC HEXAKISTETRAHEDRAL             

 SPACE GROUP (NONCENTROSYMMETRIC)     :  I -4 3 D        

 LATTICE PARAMETERS  (ANGSTROMS AND DEGREES) - CONVENTIONAL CELL
        A           B           C        ALPHA        BETA       GAMMA
    24.02161    24.02161    24.02161    90.00000    90.00000    90.00000


 NUMBER OF IRREDUCIBLE ATOMS IN THE CONVENTIONAL CELL:   13

 INPUT COORDINATES

 ATOM AT. N.              COORDINATES
   1   6     3.504968643456E-01  9.269847924535E-02  2.021629749242E-01
   2   1     3.721314975136E-01  8.421809946659E-02  1.632415852099E-01
   3   6     3.394482366786E-01  5.209579343565E-02  2.428403891714E-01
   4   6     2.973044651764E-01  6.506117805376E-02  2.818234518733E-01
   5   1     2.774682288333E-01  3.326573145276E-02  3.076096592339E-01
   6   7     2.790113055413E-01  1.167964354455E-01  2.883960310582E-01
   7   6     3.033393252950E-01  1.567088422432E-01  2.553253028981E-01
   8   6    -2.117802944718E-01 -2.881709412031E-01 -2.366154523253E-01
   9   7     3.326830867554E-01  1.446002390234E-01  2.077581230191E-01
  10   7    -2.522925485931E-01 -2.782498572010E-01 -1.986674465560E-01
  11 246    -3.963392770075E-02  7.536698408803E-02 -9.588142337891E-02
  12  17    -8.619068161587E-02  1.019528615896E-01 -1.747076318565E-01
  13   6     3.750000000000E-01 -7.821546610892E-17  2.500000000000E-01

 *******************************************************************************

 << INFORMATION >>: FROM NOW ON, ALL COORDINATES REFER TO THE PRIMITIVE CELL

 *******************************************************************************

 LATTICE PARAMETERS  (ANGSTROMS AND DEGREES) - PRIMITIVE CELL
       A          B          C        ALPHA      BETA     GAMMA        VOLUME
   20.80332   20.80332   20.80332   109.47122 109.47122 109.47122   6930.683875

 COORDINATES OF THE EQUIVALENT ATOMS (FRACTIONAL UNITS)

 N. ATOM EQUIV AT. N.          X                  Y                  Z

   1   1   1    6 C     2.94861454170E-01 -4.47340160730E-01  4.43195343591E-01
   2   1   2    6 C    -3.90535504321E-01 -1.48333889421E-01  5.68046564090E-02
   3   1   3    6 C     2.05138545830E-01 -3.51666110579E-01  2.57798385100E-01
   4   1   4    6 C    -1.09464495679E-01 -5.26598392698E-02  2.42201614900E-01
   5   1   5    6 C     4.43195343591E-01  2.94861454170E-01 -4.47340160730E-01
   6   1   6    6 C    -4.47340160730E-01  4.43195343591E-01  2.94861454170E-01
   7   1   7    6 C     2.42201614900E-01 -1.09464495679E-01 -5.26598392698E-02
   8   1   8    6 C    -1.48333889421E-01  5.68046564090E-02 -3.90535504321E-01
   9   1   9    6 C     5.68046564090E-02 -3.90535504321E-01 -1.48333889421E-01
  10   1  10    6 C    -3.51666110579E-01  2.57798385100E-01  2.05138545830E-01
  11   1  11    6 C     2.57798385100E-01  2.05138545830E-01 -3.51666110579E-01
  12   1  12    6 C    -5.26598392698E-02  2.42201614900E-01 -1.09464495679E-01
  13   1  13    6 C     5.26598392698E-02 -2.05138545830E-01 -5.68046564090E-02
  14   1  14    6 C     3.51666110579E-01  1.09464495679E-01 -4.43195343591E-01
  15   1  15    6 C     1.48333889421E-01 -2.94861454170E-01 -2.42201614900E-01
  16   1  16    6 C     4.47340160730E-01  3.90535504321E-01 -2.57798385100E-01
  17   1  17    6 C    -2.05138545830E-01 -5.68046564090E-02  5.26598392698E-02
  18   1  18    6 C    -5.68046564090E-02  5.26598392698E-02 -2.05138545830E-01
  19   1  19    6 C     3.90535504321E-01 -2.57798385100E-01  4.47340160730E-01
  20   1  20    6 C    -4.43195343591E-01  3.51666110579E-01  1.09464495679E-01
  21   1  21    6 C     1.09464495679E-01 -4.43195343591E-01  3.51666110579E-01
  22   1  22    6 C    -2.42201614900E-01  1.48333889421E-01 -2.94861454170E-01
  23   1  23    6 C    -2.94861454170E-01 -2.42201614900E-01  1.48333889421E-01
  24   1  24    6 C    -2.57798385100E-01  4.47340160730E-01  3.90535504321E-01

  25   2   1    1 H     2.47459684676E-01 -4.64626917277E-01  4.56349596980E-01
  26   2   2    1 H    -4.20976514257E-01 -2.08889912304E-01  4.36504030198E-02
  27   2   3    1 H     2.52540315324E-01 -2.91110087696E-01  2.87913398047E-01
  28   2   4    1 H    -7.90234857433E-02 -3.53730827235E-02  2.12086601953E-01
  29   2   5    1 H     4.56349596980E-01  2.47459684676E-01 -4.64626917277E-01
  30   2   6    1 H    -4.64626917277E-01  4.56349596980E-01  2.47459684676E-01
  31   2   7    1 H     2.12086601953E-01 -7.90234857433E-02 -3.53730827235E-02
  32   2   8    1 H    -2.08889912304E-01  4.36504030198E-02 -4.20976514257E-01
  33   2   9    1 H     4.36504030198E-02 -4.20976514257E-01 -2.08889912304E-01
  34   2  10    1 H    -2.91110087696E-01  2.87913398047E-01  2.52540315324E-01
  35   2  11    1 H     2.87913398047E-01  2.52540315324E-01 -2.91110087696E-01
  36   2  12    1 H    -3.53730827235E-02  2.12086601953E-01 -7.90234857433E-02
  37   2  13    1 H     3.53730827235E-02 -2.52540315324E-01 -4.36504030198E-02
  38   2  14    1 H     2.91110087696E-01  7.90234857433E-02 -4.56349596980E-01
  39   2  15    1 H     2.08889912304E-01 -2.47459684676E-01 -2.12086601953E-01
  40   2  16    1 H     4.64626917277E-01  4.20976514257E-01 -2.87913398047E-01
  41   2  17    1 H    -2.52540315324E-01 -4.36504030198E-02  3.53730827235E-02
  42   2  18    1 H    -4.36504030198E-02  3.53730827235E-02 -2.52540315324E-01
  43   2  19    1 H     4.20976514257E-01 -2.87913398047E-01  4.64626917277E-01
  44   2  20    1 H    -4.56349596980E-01  2.91110087696E-01  7.90234857433E-02
  45   2  21    1 H     7.90234857433E-02 -4.56349596980E-01  2.91110087696E-01
  46   2  22    1 H    -2.12086601953E-01  2.08889912304E-01 -2.47459684676E-01
  47   2  23    1 H    -2.47459684676E-01 -2.12086601953E-01  2.08889912304E-01
  48   2  24    1 H    -2.87913398047E-01  4.64626917277E-01  4.20976514257E-01

  49   3   1    6 C     2.94936182607E-01 -4.17711374150E-01  3.91544030114E-01
  50   3   2    6 C    -3.09255404264E-01 -9.66078475072E-02  1.08455969886E-01
  51   3   3    6 C     2.05063817393E-01 -4.03392152493E-01  2.87352443243E-01
  52   3   4    6 C    -1.90744595736E-01 -8.22886258500E-02  2.12647556757E-01
  53   3   5    6 C     3.91544030114E-01  2.94936182607E-01 -4.17711374150E-01
  54   3   6    6 C    -4.17711374150E-01  3.91544030114E-01  2.94936182607E-01
  55   3   7    6 C     2.12647556757E-01 -1.90744595736E-01 -8.22886258500E-02
  56   3   8    6 C    -9.66078475072E-02  1.08455969886E-01 -3.09255404264E-01
  57   3   9    6 C     1.08455969886E-01 -3.09255404264E-01 -9.66078475072E-02
  58   3  10    6 C    -4.03392152493E-01  2.87352443243E-01  2.05063817393E-01
  59   3  11    6 C     2.87352443243E-01  2.05063817393E-01 -4.03392152493E-01
  60   3  12    6 C    -8.22886258500E-02  2.12647556757E-01 -1.90744595736E-01
  61   3  13    6 C     8.22886258500E-02 -2.05063817393E-01 -1.08455969886E-01
  62   3  14    6 C     4.03392152493E-01  1.90744595736E-01 -3.91544030114E-01
  63   3  15    6 C     9.66078475072E-02 -2.94936182607E-01 -2.12647556757E-01
  64   3  16    6 C     4.17711374150E-01  3.09255404264E-01 -2.87352443243E-01
  65   3  17    6 C    -2.05063817393E-01 -1.08455969886E-01  8.22886258500E-02
  66   3  18    6 C    -1.08455969886E-01  8.22886258500E-02 -2.05063817393E-01
  67   3  19    6 C     3.09255404264E-01 -2.87352443243E-01  4.17711374150E-01
  68   3  20    6 C    -3.91544030114E-01  4.03392152493E-01  1.90744595736E-01
  69   3  21    6 C     1.90744595736E-01 -3.91544030114E-01  4.03392152493E-01
  70   3  22    6 C    -2.12647556757E-01  9.66078475072E-02 -2.94936182607E-01
  71   3  23    6 C    -2.94936182607E-01 -2.12647556757E-01  9.66078475072E-02
  72   3  24    6 C    -2.87352443243E-01  4.17711374150E-01  3.09255404264E-01

  73   4   1    6 C     3.46884629927E-01 -4.20872082950E-01  3.62365643230E-01
  74   4   2    6 C    -2.83237726180E-01 -1.54810133031E-02  1.37634356770E-01
  75   4   3    6 C     1.53115370073E-01 -4.84518986697E-01  2.32243287123E-01
  76   4   4    6 C    -2.16762273820E-01 -7.91279170497E-02  2.67756712877E-01
  77   4   5    6 C     3.62365643230E-01  3.46884629927E-01 -4.20872082950E-01
  78   4   6    6 C    -4.20872082950E-01  3.62365643230E-01  3.46884629927E-01
  79   4   7    6 C     2.67756712877E-01 -2.16762273820E-01 -7.91279170497E-02
  80   4   8    6 C    -1.54810133031E-02  1.37634356770E-01 -2.83237726180E-01
  81   4   9    6 C     1.37634356770E-01 -2.83237726180E-01 -1.54810133031E-02
  82   4  10    6 C    -4.84518986697E-01  2.32243287123E-01  1.53115370073E-01
  83   4  11    6 C     2.32243287123E-01  1.53115370073E-01 -4.84518986697E-01
  84   4  12    6 C    -7.91279170497E-02  2.67756712877E-01 -2.16762273820E-01
  85   4  13    6 C     7.91279170497E-02 -1.53115370073E-01 -1.37634356770E-01
  86   4  14    6 C     4.84518986697E-01  2.16762273820E-01 -3.62365643230E-01
  87   4  15    6 C     1.54810133031E-02 -3.46884629927E-01 -2.67756712877E-01
  88   4  16    6 C     4.20872082950E-01  2.83237726180E-01 -2.32243287123E-01
  89   4  17    6 C    -1.53115370073E-01 -1.37634356770E-01  7.91279170497E-02
  90   4  18    6 C    -1.37634356770E-01  7.91279170497E-02 -1.53115370073E-01
  91   4  19    6 C     2.83237726180E-01 -2.32243287123E-01  4.20872082950E-01
  92   4  20    6 C    -3.62365643230E-01  4.84518986697E-01  2.16762273820E-01
  93   4  21    6 C     2.16762273820E-01 -3.62365643230E-01  4.84518986697E-01
  94   4  22    6 C    -2.67756712877E-01  1.54810133031E-02 -3.46884629927E-01
  95   4  23    6 C    -3.46884629927E-01 -2.67756712877E-01  1.54810133031E-02
  96   4  24    6 C    -2.32243287123E-01  4.20872082950E-01  2.83237726180E-01

  97   5   1    1 H     3.40875390687E-01 -4.14922111933E-01  3.10733960286E-01
  98   5   2    1 H    -2.25656072219E-01  3.01414304006E-02  1.89266039714E-01
  99   5   3    1 H     1.59124609313E-01  4.69858569599E-01  2.44202497381E-01
 100   5   4    1 H    -2.74343927781E-01 -8.50778880672E-02  2.55797502619E-01
 101   5   5    1 H     3.10733960286E-01  3.40875390687E-01 -4.14922111933E-01
 102   5   6    1 H    -4.14922111933E-01  3.10733960286E-01  3.40875390687E-01
 103   5   7    1 H     2.55797502619E-01 -2.74343927781E-01 -8.50778880672E-02
 104   5   8    1 H     3.01414304006E-02  1.89266039714E-01 -2.25656072219E-01
 105   5   9    1 H     1.89266039714E-01 -2.25656072219E-01  3.01414304006E-02
 106   5  10    1 H     4.69858569599E-01  2.44202497381E-01  1.59124609313E-01
 107   5  11    1 H     2.44202497381E-01  1.59124609313E-01  4.69858569599E-01
 108   5  12    1 H    -8.50778880672E-02  2.55797502619E-01 -2.74343927781E-01
 109   5  13    1 H     8.50778880672E-02 -1.59124609313E-01 -1.89266039714E-01
 110   5  14    1 H    -4.69858569599E-01  2.74343927781E-01 -3.10733960286E-01
 111   5  15    1 H    -3.01414304006E-02 -3.40875390687E-01 -2.55797502619E-01
 112   5  16    1 H     4.14922111933E-01  2.25656072219E-01 -2.44202497381E-01
 113   5  17    1 H    -1.59124609313E-01 -1.89266039714E-01  8.50778880672E-02
 114   5  18    1 H    -1.89266039714E-01  8.50778880672E-02 -1.59124609313E-01
 115   5  19    1 H     2.25656072219E-01 -2.44202497381E-01  4.14922111933E-01
 116   5  20    1 H    -3.10733960286E-01 -4.69858569599E-01  2.74343927781E-01
 117   5  21    1 H     2.74343927781E-01 -3.10733960286E-01 -4.69858569599E-01
 118   5  22    1 H    -2.55797502619E-01 -3.01414304006E-02 -3.40875390687E-01
 119   5  23    1 H    -3.40875390687E-01 -2.55797502619E-01 -3.01414304006E-02
 120   5  24    1 H    -2.44202497381E-01  4.14922111933E-01  2.25656072219E-01

 121   6   1    7 N     4.05192466504E-01 -4.32592663400E-01  3.95807740987E-01
 122   6   2    7 N    -3.28400404387E-01  9.38472551690E-03  1.04192259013E-01
 123   6   3    7 N     9.48075334963E-02  4.90615274483E-01  1.62214870096E-01
 124   6   4    7 N    -1.71599595613E-01 -6.74073365995E-02  3.37785129904E-01
 125   6   5    7 N     3.95807740987E-01  4.05192466504E-01 -4.32592663400E-01
 126   6   6    7 N    -4.32592663400E-01  3.95807740987E-01  4.05192466504E-01
 127   6   7    7 N     3.37785129904E-01 -1.71599595613E-01 -6.74073365995E-02
 128   6   8    7 N     9.38472551690E-03  1.04192259013E-01 -3.28400404387E-01
 129   6   9    7 N     1.04192259013E-01 -3.28400404387E-01  9.38472551690E-03
 130   6  10    7 N     4.90615274483E-01  1.62214870096E-01  9.48075334963E-02
 131   6  11    7 N     1.62214870096E-01  9.48075334963E-02  4.90615274483E-01
 132   6  12    7 N    -6.74073365995E-02  3.37785129904E-01 -1.71599595613E-01
 133   6  13    7 N     6.74073365995E-02 -9.48075334963E-02 -1.04192259013E-01
 134   6  14    7 N    -4.90615274483E-01  1.71599595613E-01 -3.95807740987E-01
 135   6  15    7 N    -9.38472551690E-03 -4.05192466504E-01 -3.37785129904E-01
 136   6  16    7 N     4.32592663401E-01  3.28400404387E-01 -1.62214870096E-01
 137   6  17    7 N    -9.48075334963E-02 -1.04192259013E-01  6.74073365995E-02
 138   6  18    7 N    -1.04192259013E-01  6.74073365995E-02 -9.48075334963E-02
 139   6  19    7 N     3.28400404387E-01 -1.62214870096E-01  4.32592663401E-01
 140   6  20    7 N    -3.95807740987E-01 -4.90615274483E-01  1.71599595613E-01
 141   6  21    7 N     1.71599595613E-01 -3.95807740987E-01 -4.90615274483E-01
 142   6  22    7 N    -3.37785129904E-01 -9.38472551690E-03 -4.05192466504E-01
 143   6  23    7 N    -4.05192466504E-01 -3.37785129904E-01 -9.38472551690E-03
 144   6  24    7 N    -1.62214870096E-01  4.32592663401E-01  3.28400404387E-01

 145   7   1    6 C     4.12034145141E-01 -4.41335371807E-01  4.60048167538E-01
 146   7   2    6 C    -4.01383539345E-01 -4.80140223969E-02  3.99518324618E-02
 147   7   3    6 C     8.79658548587E-02 -4.51985977603E-01  1.46630483052E-01
 148   7   4    6 C    -9.86164606549E-02 -5.86646281931E-02  3.53369516948E-01
 149   7   5    6 C     4.60048167538E-01  4.12034145141E-01 -4.41335371807E-01
 150   7   6    6 C    -4.41335371807E-01  4.60048167538E-01  4.12034145141E-01
 151   7   7    6 C     3.53369516948E-01 -9.86164606549E-02 -5.86646281931E-02
 152   7   8    6 C    -4.80140223969E-02  3.99518324618E-02 -4.01383539345E-01
 153   7   9    6 C     3.99518324618E-02 -4.01383539345E-01 -4.80140223969E-02
 154   7  10    6 C    -4.51985977603E-01  1.46630483052E-01  8.79658548587E-02
 155   7  11    6 C     1.46630483052E-01  8.79658548587E-02 -4.51985977603E-01
 156   7  12    6 C    -5.86646281931E-02  3.53369516948E-01 -9.86164606549E-02
 157   7  13    6 C     5.86646281931E-02 -8.79658548587E-02 -3.99518324618E-02
 158   7  14    6 C     4.51985977603E-01  9.86164606549E-02 -4.60048167538E-01
 159   7  15    6 C     4.80140223969E-02 -4.12034145141E-01 -3.53369516948E-01
 160   7  16    6 C     4.41335371807E-01  4.01383539345E-01 -1.46630483052E-01
 161   7  17    6 C    -8.79658548587E-02 -3.99518324618E-02  5.86646281931E-02
 162   7  18    6 C    -3.99518324618E-02  5.86646281931E-02 -8.79658548587E-02
 163   7  19    6 C     4.01383539345E-01 -1.46630483052E-01  4.41335371807E-01
 164   7  20    6 C    -4.60048167538E-01  4.51985977603E-01  9.86164606549E-02
 165   7  21    6 C     9.86164606549E-02 -4.60048167538E-01  4.51985977603E-01
 166   7  22    6 C    -3.53369516948E-01  4.80140223969E-02 -4.12034145141E-01
 167   7  23    6 C    -4.12034145141E-01 -3.53369516948E-01  4.80140223969E-02
 168   7  24    6 C    -1.46630483052E-01  4.41335371807E-01  4.01383539345E-01

 169   8   1    6 C     4.75213606472E-01 -4.48395746797E-01 -4.99951235675E-01
 170   8   2    6 C    -4.48444511122E-01 -2.48351578535E-02 -4.87643251000E-05
 171   8   3    6 C     2.47863935284E-02 -4.75164842147E-01  7.63906467313E-02
 172   8   4    6 C    -5.15554888778E-02 -5.16042532029E-02  4.23609353269E-01
 173   8   5    6 C    -4.99951235675E-01  4.75213606472E-01 -4.48395746797E-01
 174   8   6    6 C    -4.48395746797E-01 -4.99951235675E-01  4.75213606472E-01
 175   8   7    6 C     4.23609353269E-01 -5.15554888778E-02 -5.16042532029E-02
 176   8   8    6 C    -2.48351578535E-02 -4.87643251000E-05 -4.48444511122E-01
 177   8   9    6 C    -4.87643251000E-05 -4.48444511122E-01 -2.48351578535E-02
 178   8  10    6 C    -4.75164842147E-01  7.63906467313E-02  2.47863935284E-02
 179   8  11    6 C     7.63906467313E-02  2.47863935284E-02 -4.75164842147E-01
 180   8  12    6 C    -5.16042532029E-02  4.23609353269E-01 -5.15554888778E-02
 181   8  13    6 C     5.16042532029E-02 -2.47863935284E-02  4.87643251000E-05
 182   8  14    6 C     4.75164842147E-01  5.15554888778E-02  4.99951235675E-01
 183   8  15    6 C     2.48351578535E-02 -4.75213606472E-01 -4.23609353269E-01
 184   8  16    6 C     4.48395746797E-01  4.48444511122E-01 -7.63906467313E-02
 185   8  17    6 C    -2.47863935284E-02  4.87643251000E-05  5.16042532029E-02
 186   8  18    6 C     4.87643251000E-05  5.16042532029E-02 -2.47863935284E-02
 187   8  19    6 C     4.48444511122E-01 -7.63906467313E-02  4.48395746797E-01
 188   8  20    6 C     4.99951235675E-01  4.75164842147E-01  5.15554888778E-02
 189   8  21    6 C     5.15554888778E-02  4.99951235675E-01  4.75164842147E-01
 190   8  22    6 C    -4.23609353269E-01  2.48351578535E-02 -4.75213606472E-01
 191   8  23    6 C    -4.75213606472E-01 -4.23609353269E-01  2.48351578535E-02
 192   8  24    6 C    -7.63906467313E-02  4.48395746797E-01  4.48444511122E-01

 193   9   1    7 N     3.52358362042E-01 -4.59558790226E-01  4.77283325779E-01
 194   9   2    7 N    -4.36842116004E-01 -1.24924963736E-01  2.27166742212E-02
 195   9   3    7 N     1.47641637957E-01 -3.75075036264E-01  1.88082847732E-01
 196   9   4    7 N    -6.31578839957E-02 -4.04412097745E-02  3.11917152268E-01
 197   9   5    7 N     4.77283325779E-01  3.52358362042E-01 -4.59558790226E-01
 198   9   6    7 N    -4.59558790226E-01  4.77283325779E-01  3.52358362042E-01
 199   9   7    7 N     3.11917152268E-01 -6.31578839957E-02 -4.04412097745E-02
 200   9   8    7 N    -1.24924963736E-01  2.27166742212E-02 -4.36842116004E-01
 201   9   9    7 N     2.27166742212E-02 -4.36842116004E-01 -1.24924963736E-01
 202   9  10    7 N    -3.75075036264E-01  1.88082847732E-01  1.47641637957E-01
 203   9  11    7 N     1.88082847732E-01  1.47641637957E-01 -3.75075036264E-01
 204   9  12    7 N    -4.04412097745E-02  3.11917152268E-01 -6.31578839957E-02
 205   9  13    7 N     4.04412097745E-02 -1.47641637957E-01 -2.27166742212E-02
 206   9  14    7 N     3.75075036264E-01  6.31578839957E-02 -4.77283325779E-01
 207   9  15    7 N     1.24924963736E-01 -3.52358362043E-01 -3.11917152268E-01
 208   9  16    7 N     4.59558790226E-01  4.36842116004E-01 -1.88082847732E-01
 209   9  17    7 N    -1.47641637957E-01 -2.27166742212E-02  4.04412097745E-02
 210   9  18    7 N    -2.27166742212E-02  4.04412097745E-02 -1.47641637957E-01
 211   9  19    7 N     4.36842116004E-01 -1.88082847732E-01  4.59558790226E-01
 212   9  20    7 N    -4.77283325779E-01  3.75075036264E-01  6.31578839957E-02
 213   9  21    7 N     6.31578839957E-02 -4.77283325779E-01  3.75075036264E-01
 214   9  22    7 N    -3.11917152268E-01  1.24924963736E-01 -3.52358362043E-01
 215   9  23    7 N    -3.52358362043E-01 -3.11917152268E-01  1.24924963736E-01
 216   9  24    7 N    -1.88082847732E-01  4.59558790226E-01  4.36842116004E-01

 217  10   1    7 N    -4.76917303757E-01 -4.50959995149E-01  4.69457594206E-01
 218  10   2    7 N    -4.20417589355E-01  5.36251020371E-02  3.05424057941E-02
 219  10   3    7 N    -2.30826962430E-02  4.46374897963E-01  2.59573086079E-02
 220  10   4    7 N    -7.95824106450E-02 -4.90400048509E-02  4.74042691392E-01
 221  10   5    7 N     4.69457594206E-01 -4.76917303757E-01 -4.50959995149E-01
 222  10   6    7 N    -4.50959995149E-01  4.69457594206E-01 -4.76917303757E-01
 223  10   7    7 N     4.74042691392E-01 -7.95824106450E-02 -4.90400048509E-02
 224  10   8    7 N     5.36251020371E-02  3.05424057941E-02 -4.20417589355E-01
 225  10   9    7 N     3.05424057941E-02 -4.20417589355E-01  5.36251020371E-02
 226  10  10    7 N     4.46374897963E-01  2.59573086079E-02 -2.30826962430E-02
 227  10  11    7 N     2.59573086079E-02 -2.30826962430E-02  4.46374897963E-01
 228  10  12    7 N    -4.90400048509E-02  4.74042691392E-01 -7.95824106450E-02
 229  10  13    7 N     4.90400048509E-02  2.30826962430E-02 -3.05424057941E-02
 230  10  14    7 N    -4.46374897963E-01  7.95824106450E-02 -4.69457594206E-01
 231  10  15    7 N    -5.36251020371E-02  4.76917303757E-01 -4.74042691392E-01
 232  10  16    7 N     4.50959995149E-01  4.20417589355E-01 -2.59573086079E-02
 233  10  17    7 N     2.30826962430E-02 -3.05424057941E-02  4.90400048509E-02
 234  10  18    7 N    -3.05424057941E-02  4.90400048509E-02  2.30826962430E-02
 235  10  19    7 N     4.20417589355E-01 -2.59573086079E-02  4.50959995149E-01
 236  10  20    7 N    -4.69457594206E-01 -4.46374897963E-01  7.95824106450E-02
 237  10  21    7 N     7.95824106450E-02 -4.69457594206E-01 -4.46374897963E-01
 238  10  22    7 N    -4.74042691392E-01 -5.36251020371E-02  4.76917303757E-01
 239  10  23    7 N     4.76917303757E-01 -4.74042691392E-01 -5.36251020371E-02
 240  10  24    7 N    -2.59573086079E-02  4.50959995149E-01  4.20417589355E-01

 241  11   1  246 PD   -2.05144392909E-02 -1.35515351080E-01  3.57330563873E-02
 242  11   2  246 PD    3.28751592533E-01 -5.62474956782E-02  4.64266943613E-01
 243  11   3  246 PD   -4.79485560709E-01 -4.43752504322E-01 -1.15000911789E-01
 244  11   4  246 PD    1.71248407467E-01 -3.64484648920E-01 -3.84999088211E-01
 245  11   5  246 PD    3.57330563873E-02 -2.05144392909E-02 -1.35515351080E-01
 246  11   6  246 PD   -1.35515351080E-01  3.57330563873E-02 -2.05144392909E-02
 247  11   7  246 PD   -3.84999088211E-01  1.71248407467E-01 -3.64484648920E-01
 248  11   8  246 PD   -5.62474956782E-02  4.64266943613E-01  3.28751592533E-01
 249  11   9  246 PD    4.64266943613E-01  3.28751592533E-01 -5.62474956782E-02
 250  11  10  246 PD   -4.43752504322E-01 -1.15000911789E-01 -4.79485560709E-01
 251  11  11  246 PD   -1.15000911789E-01 -4.79485560709E-01 -4.43752504322E-01
 252  11  12  246 PD   -3.64484648920E-01 -3.84999088211E-01  1.71248407467E-01
 253  11  13  246 PD    3.64484648920E-01  4.79485560709E-01 -4.64266943613E-01
 254  11  14  246 PD    4.43752504322E-01 -1.71248407467E-01 -3.57330563873E-02
 255  11  15  246 PD    5.62474956782E-02  2.05144392909E-02  3.84999088211E-01
 256  11  16  246 PD    1.35515351080E-01 -3.28751592533E-01  1.15000911789E-01
 257  11  17  246 PD    4.79485560709E-01 -4.64266943613E-01  3.64484648920E-01
 258  11  18  246 PD   -4.64266943613E-01  3.64484648920E-01  4.79485560709E-01
 259  11  19  246 PD   -3.28751592533E-01  1.15000911789E-01  1.35515351080E-01
 260  11  20  246 PD   -3.57330563873E-02  4.43752504322E-01 -1.71248407467E-01
 261  11  21  246 PD   -1.71248407467E-01 -3.57330563873E-02  4.43752504322E-01
 262  11  22  246 PD    3.84999088211E-01  5.62474956782E-02  2.05144392909E-02
 263  11  23  246 PD    2.05144392909E-02  3.84999088211E-01  5.62474956782E-02
 264  11  24  246 PD    1.15000911789E-01  1.35515351080E-01 -3.28751592533E-01

 265  12   1   17 CL   -7.27547702669E-02 -2.60898313472E-01  1.57621799737E-02
 266  12   2   17 CL    2.23339506554E-01 -8.85169502406E-02  4.84237820026E-01
 267  12   3   17 CL   -4.27245229733E-01 -4.11483049759E-01 -1.88143543205E-01
 268  12   4   17 CL    2.76660493446E-01 -2.39101686528E-01 -3.11856456795E-01
 269  12   5   17 CL    1.57621799737E-02 -7.27547702669E-02 -2.60898313472E-01
 270  12   6   17 CL   -2.60898313472E-01  1.57621799737E-02 -7.27547702669E-02
 271  12   7   17 CL   -3.11856456795E-01  2.76660493446E-01 -2.39101686528E-01
 272  12   8   17 CL   -8.85169502406E-02  4.84237820026E-01  2.23339506554E-01
 273  12   9   17 CL    4.84237820026E-01  2.23339506554E-01 -8.85169502406E-02
 274  12  10   17 CL   -4.11483049759E-01 -1.88143543205E-01 -4.27245229733E-01
 275  12  11   17 CL   -1.88143543205E-01 -4.27245229733E-01 -4.11483049759E-01
 276  12  12   17 CL   -2.39101686528E-01 -3.11856456795E-01  2.76660493446E-01
 277  12  13   17 CL    2.39101686528E-01  4.27245229733E-01 -4.84237820026E-01
 278  12  14   17 CL    4.11483049759E-01 -2.76660493446E-01 -1.57621799737E-02
 279  12  15   17 CL    8.85169502406E-02  7.27547702669E-02  3.11856456795E-01
 280  12  16   17 CL    2.60898313472E-01 -2.23339506554E-01  1.88143543205E-01
 281  12  17   17 CL    4.27245229733E-01 -4.84237820026E-01  2.39101686528E-01
 282  12  18   17 CL   -4.84237820026E-01  2.39101686528E-01  4.27245229733E-01
 283  12  19   17 CL   -2.23339506554E-01  1.88143543205E-01  2.60898313472E-01
 284  12  20   17 CL   -1.57621799737E-02  4.11483049759E-01 -2.76660493446E-01
 285  12  21   17 CL   -2.76660493446E-01 -1.57621799737E-02  4.11483049759E-01
 286  12  22   17 CL    3.11856456795E-01  8.85169502406E-02  7.27547702669E-02
 287  12  23   17 CL    7.27547702669E-02  3.11856456795E-01  8.85169502406E-02
 288  12  24   17 CL    1.88143543205E-01  2.60898313472E-01 -2.23339506554E-01

 289  13   1    6 C     2.50000000000E-01 -3.75000000000E-01  3.75000000000E-01
 290  13   2    6 C    -2.50000000000E-01 -1.25000000000E-01  1.25000000000E-01
 291  13   3    6 C     3.75000000000E-01  2.50000000000E-01 -3.75000000000E-01
 292  13   4    6 C    -3.75000000000E-01  3.75000000000E-01  2.50000000000E-01
 293  13   5    6 C     1.25000000000E-01 -2.50000000000E-01 -1.25000000000E-01
 294  13   6    6 C    -1.25000000000E-01  1.25000000000E-01 -2.50000000000E-01

 NUMBER OF SYMMETRY OPERATORS         :   24
 *******************************************************************************
 * GEOMETRY EDITING - INPUT COORDINATES ARE GIVEN IN ANGSTROM         
 *******************************************************************************

 GEOMETRY NOW FULLY CONSISTENT WITH THE GROUP

 GCALCO - MAX INDICES DIRECT LATTICE VECTOR    14    14    14
 NO.OF VECTORS CREATED 6999 STARS  122 RMAX   428.24855 BOHR

 GEOMETRY FOR WAVE FUNCTION - DIMENSIONALITY OF THE SYSTEM    3
 (NON PERIODIC DIRECTION: LATTICE PARAMETER FORMALLY SET TO 500)
 *******************************************************************************
 LATTICE PARAMETERS (ANGSTROMS AND DEGREES) - BOHR = 0.5291772083 ANGSTROM
 PRIMITIVE CELL - CENTRING CODE 6/0 VOLUME=  6930.683875 - DENSITY  1.425 g/cm^3
         A              B              C           ALPHA      BETA       GAMMA 
    20.80332052    20.80332052    20.80332052   109.471221 109.471221 109.471221
 *******************************************************************************
 ATOMS IN THE ASYMMETRIC UNIT   13 - ATOMS IN THE UNIT CELL:  294
     ATOM                 X/A                 Y/B                 Z/C    
 *******************************************************************************
      1 T   6 C     2.948614541696E-01 -4.473401607302E-01  4.431953435910E-01
      2 F   6 C    -3.905355043211E-01 -1.483338894214E-01  5.680465640905E-02
      3 F   6 C     2.051385458305E-01 -3.516661105786E-01  2.577983851002E-01
      4 F   6 C    -1.094644956788E-01 -5.265983926980E-02  2.422016148998E-01
      5 F   6 C     4.431953435909E-01  2.948614541696E-01 -4.473401607302E-01
      6 F   6 C    -4.473401607302E-01  4.431953435909E-01  2.948614541696E-01
      7 F   6 C     2.422016148998E-01 -1.094644956788E-01 -5.265983926980E-02
      8 F   6 C    -1.483338894214E-01  5.680465640905E-02 -3.905355043212E-01
      9 F   6 C     5.680465640905E-02 -3.905355043212E-01 -1.483338894214E-01
     10 F   6 C    -3.516661105786E-01  2.577983851002E-01  2.051385458305E-01
     11 F   6 C     2.577983851002E-01  2.051385458305E-01 -3.516661105786E-01
     12 F   6 C    -5.265983926980E-02  2.422016148998E-01 -1.094644956788E-01
     13 F   6 C     5.265983926980E-02 -2.051385458305E-01 -5.680465640905E-02
     14 F   6 C     3.516661105786E-01  1.094644956788E-01 -4.431953435910E-01
     15 F   6 C     1.483338894214E-01 -2.948614541696E-01 -2.422016148998E-01
     16 F   6 C     4.473401607302E-01  3.905355043211E-01 -2.577983851002E-01
     17 F   6 C    -2.051385458304E-01 -5.680465640905E-02  5.265983926980E-02
     18 F   6 C    -5.680465640905E-02  5.265983926980E-02 -2.051385458305E-01
     19 F   6 C     3.905355043212E-01 -2.577983851003E-01  4.473401607302E-01
     20 F   6 C    -4.431953435910E-01  3.516661105786E-01  1.094644956788E-01
     21 F   6 C     1.094644956788E-01 -4.431953435909E-01  3.516661105786E-01
     22 F   6 C    -2.422016148998E-01  1.483338894214E-01 -2.948614541696E-01
     23 F   6 C    -2.948614541696E-01 -2.422016148998E-01  1.483338894214E-01
     24 F   6 C    -2.577983851002E-01  4.473401607302E-01  3.905355043211E-01
     25 T   1 H     2.474596846765E-01 -4.646269172765E-01  4.563495969802E-01
     26 F   1 H    -4.209765142567E-01 -2.088899123037E-01  4.365040301981E-02
     27 F   1 H     2.525403153235E-01 -2.911100876963E-01  2.879133980470E-01
     28 F   1 H    -7.902348574331E-02 -3.537308272350E-02  2.120866019530E-01
     29 F   1 H     4.563495969802E-01  2.474596846765E-01 -4.646269172765E-01
     30 F   1 H    -4.646269172765E-01  4.563495969802E-01  2.474596846765E-01
     31 F   1 H     2.120866019530E-01 -7.902348574331E-02 -3.537308272350E-02
     32 F   1 H    -2.088899123037E-01  4.365040301981E-02 -4.209765142567E-01
     33 F   1 H     4.365040301981E-02 -4.209765142567E-01 -2.088899123037E-01
     34 F   1 H    -2.911100876963E-01  2.879133980470E-01  2.525403153235E-01
     35 F   1 H     2.879133980470E-01  2.525403153235E-01 -2.911100876963E-01
     36 F   1 H    -3.537308272350E-02  2.120866019530E-01 -7.902348574331E-02
     37 F   1 H     3.537308272350E-02 -2.525403153235E-01 -4.365040301981E-02
     38 F   1 H     2.911100876963E-01  7.902348574331E-02 -4.563495969802E-01
     39 F   1 H     2.088899123037E-01 -2.474596846765E-01 -2.120866019530E-01
     40 F   1 H     4.646269172765E-01  4.209765142567E-01 -2.879133980470E-01
     41 F   1 H    -2.525403153235E-01 -4.365040301981E-02  3.537308272350E-02
     42 F   1 H    -4.365040301981E-02  3.537308272350E-02 -2.525403153235E-01
     43 F   1 H     4.209765142567E-01 -2.879133980470E-01  4.646269172765E-01
     44 F   1 H    -4.563495969802E-01  2.911100876963E-01  7.902348574331E-02
     45 F   1 H     7.902348574331E-02 -4.563495969802E-01  2.911100876963E-01
     46 F   1 H    -2.120866019530E-01  2.088899123037E-01 -2.474596846765E-01
     47 F   1 H    -2.474596846765E-01 -2.120866019530E-01  2.088899123037E-01
     48 F   1 H    -2.879133980470E-01  4.646269172765E-01  4.209765142567E-01
     49 T   6 C     2.949361826071E-01 -4.177113741500E-01  3.915440301143E-01
     50 F   6 C    -3.092554042643E-01 -9.660784750720E-02  1.084559698857E-01
     51 F   6 C     2.050638173930E-01 -4.033921524928E-01  2.873524432429E-01
     52 F   6 C    -1.907445957357E-01 -8.228862585000E-02  2.126475567571E-01
     53 F   6 C     3.915440301142E-01  2.949361826070E-01 -4.177113741500E-01
     54 F   6 C    -4.177113741500E-01  3.915440301143E-01  2.949361826071E-01
     55 F   6 C     2.126475567571E-01 -1.907445957357E-01 -8.228862585000E-02
     56 F   6 C    -9.660784750720E-02  1.084559698857E-01 -3.092554042643E-01
     57 F   6 C     1.084559698857E-01 -3.092554042643E-01 -9.660784750720E-02
     58 F   6 C    -4.033921524928E-01  2.873524432429E-01  2.050638173930E-01
     59 F   6 C     2.873524432429E-01  2.050638173930E-01 -4.033921524928E-01
     60 F   6 C    -8.228862585000E-02  2.126475567571E-01 -1.907445957357E-01
     61 F   6 C     8.228862585000E-02 -2.050638173930E-01 -1.084559698858E-01
     62 F   6 C     4.033921524928E-01  1.907445957357E-01 -3.915440301143E-01
     63 F   6 C     9.660784750720E-02 -2.949361826071E-01 -2.126475567571E-01
     64 F   6 C     4.177113741500E-01  3.092554042643E-01 -2.873524432429E-01
     65 F   6 C    -2.050638173929E-01 -1.084559698858E-01  8.228862585000E-02
     66 F   6 C    -1.084559698857E-01  8.228862585000E-02 -2.050638173930E-01
     67 F   6 C     3.092554042643E-01 -2.873524432429E-01  4.177113741500E-01
     68 F   6 C    -3.915440301143E-01  4.033921524928E-01  1.907445957357E-01
     69 F   6 C     1.907445957357E-01 -3.915440301143E-01  4.033921524928E-01
     70 F   6 C    -2.126475567571E-01  9.660784750720E-02 -2.949361826071E-01
     71 F   6 C    -2.949361826071E-01 -2.126475567571E-01  9.660784750720E-02
     72 F   6 C    -2.873524432429E-01  4.177113741500E-01  3.092554042643E-01
     73 T   6 C     3.468846299271E-01 -4.208720829503E-01  3.623656432302E-01
     74 F   6 C    -2.832377261805E-01 -1.548101330310E-02  1.376343567698E-01
     75 F   6 C     1.531153700729E-01 -4.845189866969E-01  2.322432871226E-01
     76 F   6 C    -2.167622738195E-01 -7.912791704970E-02  2.677567128774E-01
     77 F   6 C     3.623656432302E-01  3.468846299271E-01 -4.208720829503E-01
     78 F   6 C    -4.208720829503E-01  3.623656432302E-01  3.468846299271E-01
     79 F   6 C     2.677567128774E-01 -2.167622738195E-01 -7.912791704970E-02
     80 F   6 C    -1.548101330310E-02  1.376343567698E-01 -2.832377261805E-01
     81 F   6 C     1.376343567698E-01 -2.832377261805E-01 -1.548101330310E-02
     82 F   6 C    -4.845189866969E-01  2.322432871226E-01  1.531153700729E-01
     83 F   6 C     2.322432871226E-01  1.531153700729E-01 -4.845189866969E-01
     84 F   6 C    -7.912791704970E-02  2.677567128774E-01 -2.167622738195E-01
     85 F   6 C     7.912791704970E-02 -1.531153700729E-01 -1.376343567698E-01
     86 F   6 C     4.845189866969E-01  2.167622738195E-01 -3.623656432302E-01
     87 F   6 C     1.548101330310E-02 -3.468846299271E-01 -2.677567128774E-01
     88 F   6 C     4.208720829503E-01  2.832377261805E-01 -2.322432871226E-01
     89 F   6 C    -1.531153700729E-01 -1.376343567698E-01  7.912791704970E-02
     90 F   6 C    -1.376343567698E-01  7.912791704970E-02 -1.531153700729E-01
     91 F   6 C     2.832377261805E-01 -2.322432871226E-01  4.208720829503E-01
     92 F   6 C    -3.623656432302E-01  4.845189866969E-01  2.167622738195E-01
     93 F   6 C     2.167622738195E-01 -3.623656432302E-01  4.845189866969E-01
     94 F   6 C    -2.677567128774E-01  1.548101330310E-02 -3.468846299271E-01
     95 F   6 C    -3.468846299271E-01 -2.677567128774E-01  1.548101330310E-02
     96 F   6 C    -2.322432871226E-01  4.208720829503E-01  2.832377261805E-01
     97 T   1 H     3.408753906867E-01 -4.149221119328E-01  3.107339602861E-01
     98 F   1 H    -2.256560722189E-01  3.014143040060E-02  1.892660397139E-01
     99 F   1 H     1.591246093133E-01  4.698585695994E-01  2.442024973805E-01
    100 F   1 H    -2.743439277811E-01 -8.507788806720E-02  2.557975026195E-01
    101 F   1 H     3.107339602861E-01  3.408753906867E-01 -4.149221119328E-01
    102 F   1 H    -4.149221119328E-01  3.107339602861E-01  3.408753906867E-01
    103 F   1 H     2.557975026195E-01 -2.743439277811E-01 -8.507788806720E-02
    104 F   1 H     3.014143040060E-02  1.892660397139E-01 -2.256560722189E-01
    105 F   1 H     1.892660397139E-01 -2.256560722189E-01  3.014143040060E-02
    106 F   1 H     4.698585695994E-01  2.442024973805E-01  1.591246093133E-01
    107 F   1 H     2.442024973805E-01  1.591246093133E-01  4.698585695994E-01
    108 F   1 H    -8.507788806720E-02  2.557975026195E-01 -2.743439277811E-01
    109 F   1 H     8.507788806720E-02 -1.591246093133E-01 -1.892660397139E-01
    110 F   1 H    -4.698585695994E-01  2.743439277811E-01 -3.107339602861E-01
    111 F   1 H    -3.014143040060E-02 -3.408753906867E-01 -2.557975026195E-01
    112 F   1 H     4.149221119328E-01  2.256560722189E-01 -2.442024973805E-01
    113 F   1 H    -1.591246093133E-01 -1.892660397139E-01  8.507788806720E-02
    114 F   1 H    -1.892660397139E-01  8.507788806720E-02 -1.591246093133E-01
    115 F   1 H     2.256560722189E-01 -2.442024973805E-01  4.149221119328E-01
    116 F   1 H    -3.107339602861E-01 -4.698585695994E-01  2.743439277811E-01
    117 F   1 H     2.743439277811E-01 -3.107339602861E-01 -4.698585695994E-01
    118 F   1 H    -2.557975026195E-01 -3.014143040060E-02 -3.408753906867E-01
    119 F   1 H    -3.408753906867E-01 -2.557975026195E-01 -3.014143040060E-02
    120 F   1 H    -2.442024973805E-01  4.149221119328E-01  2.256560722189E-01
    121 T   7 N     4.051924665037E-01 -4.325926634005E-01  3.958077409868E-01
    122 F   7 N    -3.284004043873E-01  9.384725516900E-03  1.041922590132E-01
    123 F   7 N     9.480753349630E-02  4.906152744831E-01  1.622148700958E-01
    124 F   7 N    -1.715995956127E-01 -6.740733659950E-02  3.377851299042E-01
    125 F   7 N     3.958077409868E-01  4.051924665037E-01 -4.325926634005E-01
    126 F   7 N    -4.325926634005E-01  3.958077409868E-01  4.051924665037E-01
    127 F   7 N     3.377851299042E-01 -1.715995956127E-01 -6.740733659950E-02
    128 F   7 N     9.384725516900E-03  1.041922590132E-01 -3.284004043873E-01
    129 F   7 N     1.041922590132E-01 -3.284004043873E-01  9.384725516900E-03
    130 F   7 N     4.906152744831E-01  1.622148700958E-01  9.480753349630E-02
    131 F   7 N     1.622148700958E-01  9.480753349630E-02  4.906152744831E-01
    132 F   7 N    -6.740733659950E-02  3.377851299042E-01 -1.715995956127E-01
    133 F   7 N     6.740733659950E-02 -9.480753349630E-02 -1.041922590132E-01
    134 F   7 N    -4.906152744831E-01  1.715995956127E-01 -3.958077409868E-01
    135 F   7 N    -9.384725516900E-03 -4.051924665037E-01 -3.377851299042E-01
    136 F   7 N     4.325926634005E-01  3.284004043873E-01 -1.622148700958E-01
    137 F   7 N    -9.480753349630E-02 -1.041922590132E-01  6.740733659950E-02
    138 F   7 N    -1.041922590132E-01  6.740733659950E-02 -9.480753349630E-02
    139 F   7 N     3.284004043873E-01 -1.622148700958E-01  4.325926634005E-01
    140 F   7 N    -3.958077409868E-01 -4.906152744831E-01  1.715995956127E-01
    141 F   7 N     1.715995956127E-01 -3.958077409868E-01 -4.906152744831E-01
    142 F   7 N    -3.377851299042E-01 -9.384725516900E-03 -4.051924665037E-01
    143 F   7 N    -4.051924665037E-01 -3.377851299042E-01 -9.384725516900E-03
    144 F   7 N    -1.622148700958E-01  4.325926634005E-01  3.284004043873E-01
    145 T   6 C     4.120341451413E-01 -4.413353718069E-01  4.600481675382E-01
    146 F   6 C    -4.013835393451E-01 -4.801402239690E-02  3.995183246180E-02
    147 F   6 C     8.796585485870E-02 -4.519859776031E-01  1.466304830518E-01
    148 F   6 C    -9.861646065490E-02 -5.866462819310E-02  3.533695169482E-01
    149 F   6 C     4.600481675382E-01  4.120341451413E-01 -4.413353718069E-01
    150 F   6 C    -4.413353718069E-01  4.600481675382E-01  4.120341451413E-01
    151 F   6 C     3.533695169482E-01 -9.861646065490E-02 -5.866462819310E-02
    152 F   6 C    -4.801402239690E-02  3.995183246180E-02 -4.013835393451E-01
    153 F   6 C     3.995183246180E-02 -4.013835393451E-01 -4.801402239690E-02
    154 F   6 C    -4.519859776031E-01  1.466304830518E-01  8.796585485870E-02
    155 F   6 C     1.466304830518E-01  8.796585485870E-02 -4.519859776031E-01
    156 F   6 C    -5.866462819310E-02  3.533695169482E-01 -9.861646065490E-02
    157 F   6 C     5.866462819310E-02 -8.796585485870E-02 -3.995183246180E-02
    158 F   6 C     4.519859776031E-01  9.861646065490E-02 -4.600481675382E-01
    159 F   6 C     4.801402239690E-02 -4.120341451413E-01 -3.533695169482E-01
    160 F   6 C     4.413353718069E-01  4.013835393451E-01 -1.466304830518E-01
    161 F   6 C    -8.796585485870E-02 -3.995183246180E-02  5.866462819310E-02
    162 F   6 C    -3.995183246180E-02  5.866462819310E-02 -8.796585485870E-02
    163 F   6 C     4.013835393451E-01 -1.466304830518E-01  4.413353718069E-01
    164 F   6 C    -4.600481675382E-01  4.519859776031E-01  9.861646065490E-02
    165 F   6 C     9.861646065490E-02 -4.600481675382E-01  4.519859776031E-01
    166 F   6 C    -3.533695169482E-01  4.801402239690E-02 -4.120341451413E-01
    167 F   6 C    -4.120341451413E-01 -3.533695169482E-01  4.801402239690E-02
    168 F   6 C    -1.466304830518E-01  4.413353718069E-01  4.013835393451E-01
    169 T   6 C     4.752136064716E-01 -4.483957467971E-01 -4.999512356749E-01
    170 F   6 C    -4.484445111222E-01 -2.483515785350E-02 -4.876432510028E-05
    171 F   6 C     2.478639352840E-02 -4.751648421465E-01  7.639064673130E-02
    172 F   6 C    -5.155548887780E-02 -5.160425320290E-02  4.236093532687E-01
    173 F   6 C    -4.999512356749E-01  4.752136064716E-01 -4.483957467971E-01
    174 F   6 C    -4.483957467971E-01 -4.999512356749E-01  4.752136064716E-01
    175 F   6 C     4.236093532687E-01 -5.155548887780E-02 -5.160425320290E-02
    176 F   6 C    -2.483515785350E-02 -4.876432510023E-05 -4.484445111222E-01
    177 F   6 C    -4.876432510000E-05 -4.484445111222E-01 -2.483515785350E-02
    178 F   6 C    -4.751648421465E-01  7.639064673130E-02  2.478639352840E-02
    179 F   6 C     7.639064673130E-02  2.478639352840E-02 -4.751648421465E-01
    180 F   6 C    -5.160425320290E-02  4.236093532687E-01 -5.155548887780E-02
    181 F   6 C     5.160425320290E-02 -2.478639352840E-02  4.876432510012E-05
    182 F   6 C     4.751648421465E-01  5.155548887780E-02  4.999512356749E-01
    183 F   6 C     2.483515785350E-02 -4.752136064716E-01 -4.236093532687E-01
    184 F   6 C     4.483957467971E-01  4.484445111222E-01 -7.639064673130E-02
    185 F   6 C    -2.478639352840E-02  4.876432510013E-05  5.160425320290E-02
    186 F   6 C     4.876432510012E-05  5.160425320290E-02 -2.478639352840E-02
    187 F   6 C     4.484445111222E-01 -7.639064673130E-02  4.483957467971E-01
    188 F   6 C     4.999512356749E-01  4.751648421465E-01  5.155548887780E-02
    189 F   6 C     5.155548887780E-02  4.999512356749E-01  4.751648421465E-01
    190 F   6 C    -4.236093532687E-01  2.483515785350E-02 -4.752136064716E-01
    191 F   6 C    -4.752136064716E-01 -4.236093532687E-01  2.483515785350E-02
    192 F   6 C    -7.639064673130E-02  4.483957467971E-01  4.484445111222E-01
    193 T   7 N     3.523583620425E-01 -4.595587902255E-01  4.772833257788E-01
    194 F   7 N    -4.368421160043E-01 -1.249249637363E-01  2.271667422120E-02
    195 F   7 N     1.476416379575E-01 -3.750750362637E-01  1.880828477320E-01
    196 F   7 N    -6.315788399570E-02 -4.044120977450E-02  3.119171522680E-01
    197 F   7 N     4.772833257788E-01  3.523583620425E-01 -4.595587902255E-01
    198 F   7 N    -4.595587902255E-01  4.772833257788E-01  3.523583620425E-01
    199 F   7 N     3.119171522680E-01 -6.315788399570E-02 -4.044120977450E-02
    200 F   7 N    -1.249249637363E-01  2.271667422120E-02 -4.368421160043E-01
    201 F   7 N     2.271667422120E-02 -4.368421160043E-01 -1.249249637363E-01
    202 F   7 N    -3.750750362637E-01  1.880828477320E-01  1.476416379575E-01
    203 F   7 N     1.880828477320E-01  1.476416379575E-01 -3.750750362637E-01
    204 F   7 N    -4.044120977450E-02  3.119171522680E-01 -6.315788399570E-02
    205 F   7 N     4.044120977450E-02 -1.476416379575E-01 -2.271667422120E-02
    206 F   7 N     3.750750362637E-01  6.315788399570E-02 -4.772833257788E-01
    207 F   7 N     1.249249637363E-01 -3.523583620425E-01 -3.119171522680E-01
    208 F   7 N     4.595587902255E-01  4.368421160043E-01 -1.880828477320E-01
    209 F   7 N    -1.476416379575E-01 -2.271667422120E-02  4.044120977450E-02
    210 F   7 N    -2.271667422120E-02  4.044120977450E-02 -1.476416379575E-01
    211 F   7 N     4.368421160043E-01 -1.880828477320E-01  4.595587902255E-01
    212 F   7 N    -4.772833257788E-01  3.750750362637E-01  6.315788399570E-02
    213 F   7 N     6.315788399570E-02 -4.772833257788E-01  3.750750362637E-01
    214 F   7 N    -3.119171522680E-01  1.249249637363E-01 -3.523583620425E-01
    215 F   7 N    -3.523583620425E-01 -3.119171522680E-01  1.249249637363E-01
    216 F   7 N    -1.880828477320E-01  4.595587902255E-01  4.368421160043E-01
    217 T   7 N    -4.769173037570E-01 -4.509599951491E-01  4.694575942059E-01
    218 F   7 N    -4.204175893550E-01  5.362510203710E-02  3.054240579410E-02
    219 F   7 N    -2.308269624300E-02  4.463748979629E-01  2.595730860790E-02
    220 F   7 N    -7.958241064500E-02 -4.904000485090E-02  4.740426913921E-01
    221 F   7 N     4.694575942059E-01 -4.769173037570E-01 -4.509599951491E-01
    222 F   7 N    -4.509599951491E-01  4.694575942059E-01 -4.769173037570E-01
    223 F   7 N     4.740426913921E-01 -7.958241064500E-02 -4.904000485090E-02
    224 F   7 N     5.362510203710E-02  3.054240579410E-02 -4.204175893550E-01
    225 F   7 N     3.054240579410E-02 -4.204175893550E-01  5.362510203710E-02
    226 F   7 N     4.463748979629E-01  2.595730860790E-02 -2.308269624300E-02
    227 F   7 N     2.595730860790E-02 -2.308269624300E-02  4.463748979629E-01
    228 F   7 N    -4.904000485090E-02  4.740426913921E-01 -7.958241064500E-02
    229 F   7 N     4.904000485090E-02  2.308269624300E-02 -3.054240579410E-02
    230 F   7 N    -4.463748979629E-01  7.958241064500E-02 -4.694575942059E-01
    231 F   7 N    -5.362510203710E-02  4.769173037570E-01 -4.740426913921E-01
    232 F   7 N     4.509599951491E-01  4.204175893550E-01 -2.595730860790E-02
    233 F   7 N     2.308269624300E-02 -3.054240579410E-02  4.904000485090E-02
    234 F   7 N    -3.054240579410E-02  4.904000485090E-02  2.308269624300E-02
    235 F   7 N     4.204175893550E-01 -2.595730860790E-02  4.509599951491E-01
    236 F   7 N    -4.694575942059E-01 -4.463748979629E-01  7.958241064500E-02
    237 F   7 N     7.958241064500E-02 -4.694575942059E-01 -4.463748979629E-01
    238 F   7 N    -4.740426913921E-01 -5.362510203710E-02  4.769173037570E-01
    239 F   7 N     4.769173037570E-01 -4.740426913921E-01 -5.362510203710E-02
    240 F   7 N    -2.595730860790E-02  4.509599951491E-01  4.204175893550E-01
    241 T 246 PD   -2.051443929088E-02 -1.355153510797E-01  3.573305638728E-02
    242 F 246 PD    3.287515925331E-01 -5.624749567816E-02  4.642669436127E-01
    243 F 246 PD   -4.794855607091E-01 -4.437525043218E-01 -1.150009117888E-01
    244 F 246 PD    1.712484074669E-01 -3.644846489203E-01 -3.849990882112E-01
    245 F 246 PD    3.573305638728E-02 -2.051443929088E-02 -1.355153510797E-01
    246 F 246 PD   -1.355153510797E-01  3.573305638728E-02 -2.051443929088E-02
    247 F 246 PD   -3.849990882112E-01  1.712484074669E-01 -3.644846489203E-01
    248 F 246 PD   -5.624749567816E-02  4.642669436127E-01  3.287515925331E-01
    249 F 246 PD    4.642669436127E-01  3.287515925331E-01 -5.624749567816E-02
    250 F 246 PD   -4.437525043218E-01 -1.150009117888E-01 -4.794855607091E-01
    251 F 246 PD   -1.150009117888E-01 -4.794855607091E-01 -4.437525043218E-01
    252 F 246 PD   -3.644846489203E-01 -3.849990882112E-01  1.712484074669E-01
    253 F 246 PD    3.644846489203E-01  4.794855607091E-01 -4.642669436127E-01
    254 F 246 PD    4.437525043218E-01 -1.712484074669E-01 -3.573305638728E-02
    255 F 246 PD    5.624749567816E-02  2.051443929088E-02  3.849990882112E-01
    256 F 246 PD    1.355153510797E-01 -3.287515925331E-01  1.150009117888E-01
    257 F 246 PD    4.794855607091E-01 -4.642669436127E-01  3.644846489203E-01
    258 F 246 PD   -4.642669436127E-01  3.644846489203E-01  4.794855607091E-01
    259 F 246 PD   -3.287515925331E-01  1.150009117888E-01  1.355153510797E-01
    260 F 246 PD   -3.573305638728E-02  4.437525043218E-01 -1.712484074669E-01
    261 F 246 PD   -1.712484074669E-01 -3.573305638728E-02  4.437525043218E-01
    262 F 246 PD    3.849990882112E-01  5.624749567816E-02  2.051443929088E-02
    263 F 246 PD    2.051443929088E-02  3.849990882112E-01  5.624749567816E-02
    264 F 246 PD    1.150009117888E-01  1.355153510797E-01 -3.287515925331E-01
    265 T  17 CL   -7.275477026690E-02 -2.608983134724E-01  1.576217997373E-02
    266 F  17 CL    2.233395065539E-01 -8.851695024063E-02  4.842378200263E-01
    267 F  17 CL   -4.272452297331E-01 -4.114830497594E-01 -1.881435432055E-01
    268 F  17 CL    2.766604934461E-01 -2.391016865276E-01 -3.118564567945E-01
    269 F  17 CL    1.576217997373E-02 -7.275477026690E-02 -2.608983134724E-01
    270 F  17 CL   -2.608983134724E-01  1.576217997373E-02 -7.275477026690E-02
    271 F  17 CL   -3.118564567945E-01  2.766604934461E-01 -2.391016865276E-01
    272 F  17 CL   -8.851695024063E-02  4.842378200263E-01  2.233395065539E-01
    273 F  17 CL    4.842378200263E-01  2.233395065539E-01 -8.851695024063E-02
    274 F  17 CL   -4.114830497594E-01 -1.881435432055E-01 -4.272452297331E-01
    275 F  17 CL   -1.881435432055E-01 -4.272452297331E-01 -4.114830497594E-01
    276 F  17 CL   -2.391016865276E-01 -3.118564567945E-01  2.766604934461E-01
    277 F  17 CL    2.391016865276E-01  4.272452297331E-01 -4.842378200263E-01
    278 F  17 CL    4.114830497594E-01 -2.766604934461E-01 -1.576217997373E-02
    279 F  17 CL    8.851695024063E-02  7.275477026690E-02  3.118564567945E-01
    280 F  17 CL    2.608983134724E-01 -2.233395065539E-01  1.881435432055E-01
    281 F  17 CL    4.272452297331E-01 -4.842378200263E-01  2.391016865276E-01
    282 F  17 CL   -4.842378200263E-01  2.391016865276E-01  4.272452297331E-01
    283 F  17 CL   -2.233395065539E-01  1.881435432055E-01  2.608983134724E-01
    284 F  17 CL   -1.576217997373E-02  4.114830497594E-01 -2.766604934461E-01
    285 F  17 CL   -2.766604934461E-01 -1.576217997373E-02  4.114830497594E-01
    286 F  17 CL    3.118564567945E-01  8.851695024063E-02  7.275477026690E-02
    287 F  17 CL    7.275477026690E-02  3.118564567945E-01  8.851695024063E-02
    288 F  17 CL    1.881435432055E-01  2.608983134724E-01 -2.233395065539E-01
    289 T   6 C     2.500000000000E-01 -3.750000000000E-01  3.750000000000E-01
    290 F   6 C    -2.500000000000E-01 -1.250000000000E-01  1.250000000000E-01
    291 F   6 C     3.750000000000E-01  2.500000000000E-01 -3.750000000000E-01
    292 F   6 C    -3.750000000000E-01  3.750000000000E-01  2.500000000000E-01
    293 F   6 C     1.250000000000E-01 -2.500000000000E-01 -1.250000000000E-01
    294 F   6 C    -1.250000000000E-01  1.250000000000E-01 -2.500000000000E-01

 TRANSFORMATION MATRIX PRIMITIVE-CRYSTALLOGRAPHIC CELL
  0.0000  1.0000  1.0000  1.0000  0.0000  1.0000  1.0000  1.0000  0.0000

 *******************************************************************************
 CRYSTALLOGRAPHIC CELL (VOLUME=      13861.36775040)
         A              B              C           ALPHA      BETA       GAMMA 
    24.02160540    24.02160540    24.02160540    90.000000  90.000000  90.000000

 COORDINATES IN THE CRYSTALLOGRAPHIC CELL
     ATOM                 X/A                 Y/B                 Z/C    
 *******************************************************************************
      1 T   6 C     3.504968643456E-01  9.269847924535E-02  2.021629749242E-01
      2 F   6 C     1.495031356544E-01 -9.269847924535E-02 -2.978370250758E-01
      3 F   6 C     3.504968643456E-01 -9.269847924535E-02  2.978370250758E-01
      4 F   6 C     1.495031356544E-01  9.269847924535E-02 -2.021629749242E-01
      5 F   6 C     2.021629749242E-01  3.504968643456E-01  9.269847924535E-02
      6 F   6 C     9.269847924535E-02  2.021629749242E-01  3.504968643456E-01
      7 F   6 C    -2.021629749242E-01  1.495031356544E-01  9.269847924535E-02
      8 F   6 C    -9.269847924535E-02 -2.978370250758E-01  1.495031356544E-01
      9 F   6 C    -2.978370250758E-01  1.495031356544E-01 -9.269847924535E-02
     10 F   6 C    -9.269847924535E-02  2.978370250758E-01  3.504968643456E-01
     11 F   6 C     2.978370250758E-01  3.504968643456E-01 -9.269847924535E-02
     12 F   6 C     9.269847924535E-02 -2.021629749242E-01  1.495031356544E-01
     13 F   6 C    -1.573015207547E-01  1.004968643456E-01 -4.783702507580E-02
     14 F   6 C     1.573015207546E-01  3.995031356544E-01 -4.783702507580E-02
     15 F   6 C    -3.426984792454E-01  1.004968643456E-01  4.783702507580E-02
     16 F   6 C    -1.573015207547E-01 -1.004968643456E-01 -4.521629749242E-01
     17 F   6 C     1.004968643456E-01 -4.783702507580E-02 -1.573015207546E-01
     18 F   6 C    -4.783702507580E-02 -1.573015207547E-01  1.004968643456E-01
     19 F   6 C    -1.004968643456E-01 -4.521629749242E-01 -1.573015207546E-01
     20 F   6 C    -4.783702507580E-02  1.573015207546E-01  3.995031356544E-01
     21 F   6 C     3.995031356544E-01 -4.783702507580E-02  1.573015207547E-01
     22 F   6 C     4.783702507580E-02 -3.426984792454E-01  1.004968643456E-01
     23 F   6 C     1.004968643456E-01  4.783702507580E-02 -3.426984792454E-01
     24 F   6 C    -4.521629749242E-01 -1.573015207546E-01 -1.004968643456E-01
     25 T   1 H     3.721314975136E-01  8.421809946659E-02  1.632415852099E-01
     26 F   1 H     1.278685024864E-01 -8.421809946659E-02 -3.367584147901E-01
     27 F   1 H    -1.278685024864E-01  4.157819005334E-01 -1.632415852099E-01
     28 F   1 H     1.278685024864E-01  8.421809946659E-02 -1.632415852099E-01
     29 F   1 H     1.632415852099E-01  3.721314975136E-01  8.421809946659E-02
     30 F   1 H     8.421809946659E-02  1.632415852099E-01  3.721314975136E-01
     31 F   1 H    -1.632415852099E-01  1.278685024864E-01  8.421809946659E-02
     32 F   1 H    -8.421809946659E-02 -3.367584147901E-01  1.278685024864E-01
     33 F   1 H    -3.367584147901E-01  1.278685024864E-01 -8.421809946659E-02
     34 F   1 H     4.157819005334E-01 -1.632415852099E-01 -1.278685024864E-01
     35 F   1 H    -1.632415852099E-01 -1.278685024864E-01  4.157819005334E-01
     36 F   1 H     8.421809946659E-02 -1.632415852099E-01  1.278685024864E-01
     37 F   1 H    -1.657819005334E-01  1.221314975136E-01 -8.675841479010E-02
     38 F   1 H     1.657819005334E-01  3.778685024864E-01 -8.675841479010E-02
     39 F   1 H    -3.342180994666E-01  1.221314975136E-01  8.675841479010E-02
     40 F   1 H    -1.657819005334E-01 -1.221314975136E-01 -4.132415852099E-01
     41 F   1 H     1.221314975136E-01 -8.675841479010E-02 -1.657819005334E-01
     42 F   1 H    -8.675841479010E-02 -1.657819005334E-01  1.221314975136E-01
     43 F   1 H    -1.221314975136E-01 -4.132415852099E-01 -1.657819005334E-01
     44 F   1 H    -8.675841479010E-02  1.657819005334E-01  3.778685024864E-01
     45 F   1 H     3.778685024864E-01 -8.675841479010E-02  1.657819005334E-01
     46 F   1 H     8.675841479010E-02 -3.342180994666E-01  1.221314975136E-01
     47 F   1 H     1.221314975136E-01  8.675841479010E-02 -3.342180994666E-01
     48 F   1 H    -4.132415852099E-01 -1.657819005334E-01 -1.221314975136E-01
     49 T   6 C     3.394482366786E-01  5.209579343565E-02  2.428403891714E-01
     50 F   6 C     1.605517633214E-01 -5.209579343565E-02 -2.571596108286E-01
     51 F   6 C     3.394482366786E-01 -5.209579343565E-02  2.571596108286E-01
     52 F   6 C     1.605517633214E-01  5.209579343565E-02 -2.428403891714E-01
     53 F   6 C     2.428403891714E-01  3.394482366786E-01  5.209579343565E-02
     54 F   6 C     5.209579343565E-02  2.428403891714E-01  3.394482366786E-01
     55 F   6 C    -2.428403891714E-01  1.605517633214E-01  5.209579343565E-02
     56 F   6 C    -5.209579343565E-02 -2.571596108286E-01  1.605517633214E-01
     57 F   6 C    -2.571596108286E-01  1.605517633214E-01 -5.209579343565E-02
     58 F   6 C    -5.209579343565E-02  2.571596108286E-01  3.394482366786E-01
     59 F   6 C     2.571596108286E-01  3.394482366786E-01 -5.209579343565E-02
     60 F   6 C     5.209579343565E-02 -2.428403891714E-01  1.605517633214E-01
     61 F   6 C    -1.979042065644E-01  8.944823667860E-02 -7.159610828600E-03
     62 F   6 C     1.979042065643E-01  4.105517633214E-01 -7.159610828600E-03
     63 F   6 C    -3.020957934357E-01  8.944823667860E-02  7.159610828600E-03
     64 F   6 C     3.020957934357E-01  4.105517633214E-01  7.159610828600E-03
     65 F   6 C     8.944823667860E-02 -7.159610828600E-03 -1.979042065643E-01
     66 F   6 C    -7.159610828600E-03 -1.979042065643E-01  8.944823667860E-02
     67 F   6 C     4.105517633214E-01  7.159610828600E-03  3.020957934357E-01
     68 F   6 C    -7.159610828600E-03  1.979042065643E-01  4.105517633214E-01
     69 F   6 C     4.105517633214E-01 -7.159610828600E-03  1.979042065643E-01
     70 F   6 C     7.159610828600E-03 -3.020957934357E-01  8.944823667860E-02
     71 F   6 C     8.944823667860E-02  7.159610828600E-03 -3.020957934357E-01
     72 F   6 C     7.159610828600E-03  3.020957934357E-01  4.105517633214E-01
     73 T   6 C     2.973044651764E-01  6.506117805376E-02  2.818234518733E-01
     74 F   6 C     2.026955348236E-01 -6.506117805376E-02 -2.181765481267E-01
     75 F   6 C     2.973044651764E-01 -6.506117805376E-02  2.181765481267E-01
     76 F   6 C     2.026955348236E-01  6.506117805376E-02 -2.818234518733E-01
     77 F   6 C     2.818234518733E-01  2.973044651764E-01  6.506117805376E-02
     78 F   6 C     6.506117805376E-02  2.818234518733E-01  2.973044651764E-01
     79 F   6 C    -2.818234518733E-01  2.026955348236E-01  6.506117805376E-02
     80 F   6 C    -6.506117805376E-02 -2.181765481267E-01  2.026955348236E-01
     81 F   6 C    -2.181765481267E-01  2.026955348236E-01 -6.506117805376E-02
     82 F   6 C    -6.506117805376E-02  2.181765481267E-01  2.973044651764E-01
     83 F   6 C     2.181765481267E-01  2.973044651764E-01 -6.506117805376E-02
     84 F   6 C     6.506117805376E-02 -2.818234518733E-01  2.026955348236E-01
     85 F   6 C    -1.849388219462E-01  4.730446517640E-02  3.182345187330E-02
     86 F   6 C     1.849388219462E-01  4.526955348236E-01  3.182345187330E-02
     87 F   6 C    -3.150611780538E-01  4.730446517640E-02 -3.182345187330E-02
     88 F   6 C    -1.849388219462E-01 -4.730446517640E-02  4.681765481267E-01
     89 F   6 C     4.730446517640E-02  3.182345187330E-02 -1.849388219462E-01
     90 F   6 C     3.182345187330E-02 -1.849388219462E-01  4.730446517640E-02
     91 F   6 C    -4.730446517640E-02  4.681765481267E-01 -1.849388219462E-01
     92 F   6 C     3.182345187330E-02  1.849388219462E-01  4.526955348236E-01
     93 F   6 C     4.526955348236E-01  3.182345187330E-02  1.849388219462E-01
     94 F   6 C    -3.182345187330E-02 -3.150611780538E-01  4.730446517640E-02
     95 F   6 C     4.730446517640E-02 -3.182345187330E-02 -3.150611780538E-01
     96 F   6 C     4.681765481267E-01 -1.849388219462E-01 -4.730446517640E-02
     97 T   1 H     2.774682288333E-01  3.326573145276E-02  3.076096592339E-01
     98 F   1 H     2.225317711667E-01 -3.326573145276E-02 -1.923903407661E-01
     99 F   1 H     2.774682288333E-01 -3.326573145276E-02  1.923903407661E-01
    100 F   1 H     2.225317711667E-01  3.326573145276E-02 -3.076096592339E-01
    101 F   1 H     3.076096592339E-01  2.774682288333E-01  3.326573145276E-02
    102 F   1 H     3.326573145276E-02  3.076096592339E-01  2.774682288333E-01
    103 F   1 H    -3.076096592339E-01  2.225317711667E-01  3.326573145276E-02
    104 F   1 H    -3.326573145276E-02 -1.923903407661E-01  2.225317711667E-01
    105 F   1 H    -1.923903407661E-01  2.225317711667E-01 -3.326573145276E-02
    106 F   1 H    -3.326573145276E-02  1.923903407661E-01  2.774682288333E-01
    107 F   1 H     1.923903407661E-01  2.774682288333E-01 -3.326573145276E-02
    108 F   1 H     3.326573145276E-02 -3.076096592339E-01  2.225317711667E-01
    109 F   1 H    -2.167342685472E-01  2.746822883330E-02  5.760965923390E-02
    110 F   1 H     2.167342685472E-01  4.725317711667E-01  5.760965923390E-02
    111 F   1 H    -2.832657314528E-01  2.746822883330E-02 -5.760965923390E-02
    112 F   1 H    -2.167342685472E-01 -2.746822883330E-02  4.423903407661E-01
    113 F   1 H     2.746822883330E-02  5.760965923390E-02 -2.167342685472E-01
    114 F   1 H     5.760965923390E-02 -2.167342685472E-01  2.746822883330E-02
    115 F   1 H    -2.746822883330E-02  4.423903407661E-01 -2.167342685472E-01
    116 F   1 H     5.760965923390E-02  2.167342685472E-01  4.725317711667E-01
    117 F   1 H     4.725317711667E-01  5.760965923390E-02  2.167342685472E-01
    118 F   1 H    -5.760965923390E-02 -2.832657314528E-01  2.746822883330E-02
    119 F   1 H     2.746822883330E-02 -5.760965923390E-02 -2.832657314528E-01
    120 F   1 H     4.423903407661E-01 -2.167342685472E-01 -2.746822883330E-02
    121 T   7 N     2.790113055413E-01  1.167964354455E-01  2.883960310582E-01
    122 F   7 N     2.209886944587E-01 -1.167964354455E-01 -2.116039689418E-01
    123 F   7 N     2.790113055413E-01 -1.167964354455E-01  2.116039689418E-01
    124 F   7 N     2.209886944587E-01  1.167964354455E-01 -2.883960310582E-01
    125 F   7 N     2.883960310582E-01  2.790113055413E-01  1.167964354455E-01
    126 F   7 N     1.167964354455E-01  2.883960310582E-01  2.790113055413E-01
    127 F   7 N    -2.883960310582E-01  2.209886944587E-01  1.167964354455E-01
    128 F   7 N    -1.167964354455E-01 -2.116039689418E-01  2.209886944587E-01
    129 F   7 N    -2.116039689418E-01  2.209886944587E-01 -1.167964354455E-01
    130 F   7 N    -1.167964354455E-01  2.116039689418E-01  2.790113055413E-01
    131 F   7 N     2.116039689418E-01  2.790113055413E-01 -1.167964354455E-01
    132 F   7 N     1.167964354455E-01 -2.883960310582E-01  2.209886944587E-01
    133 F   7 N    -1.332035645545E-01  2.901130554130E-02  3.839603105820E-02
    134 F   7 N     1.332035645545E-01  4.709886944587E-01  3.839603105820E-02
    135 F   7 N    -3.667964354455E-01  2.901130554130E-02 -3.839603105820E-02
    136 F   7 N    -1.332035645545E-01 -2.901130554130E-02  4.616039689418E-01
    137 F   7 N     2.901130554130E-02  3.839603105820E-02 -1.332035645545E-01
    138 F   7 N     3.839603105820E-02 -1.332035645545E-01  2.901130554130E-02
    139 F   7 N    -2.901130554130E-02  4.616039689418E-01 -1.332035645545E-01
    140 F   7 N     3.839603105820E-02  1.332035645545E-01  4.709886944587E-01
    141 F   7 N     4.709886944587E-01  3.839603105820E-02  1.332035645545E-01
    142 F   7 N    -3.839603105820E-02 -3.667964354455E-01  2.901130554130E-02
    143 F   7 N     2.901130554130E-02 -3.839603105820E-02 -3.667964354455E-01
    144 F   7 N     4.616039689418E-01 -1.332035645545E-01 -2.901130554130E-02
    145 T   6 C     3.033393252950E-01  1.567088422432E-01  2.553253028981E-01
    146 F   6 C     1.966606747050E-01 -1.567088422432E-01 -2.446746971019E-01
    147 F   6 C     3.033393252950E-01 -1.567088422432E-01  2.446746971019E-01
    148 F   6 C     1.966606747050E-01  1.567088422432E-01 -2.553253028981E-01
    149 F   6 C     2.553253028981E-01  3.033393252950E-01  1.567088422432E-01
    150 F   6 C     1.567088422432E-01  2.553253028981E-01  3.033393252950E-01
    151 F   6 C    -2.553253028981E-01  1.966606747050E-01  1.567088422432E-01
    152 F   6 C    -1.567088422432E-01 -2.446746971019E-01  1.966606747050E-01
    153 F   6 C    -2.446746971019E-01  1.966606747050E-01 -1.567088422432E-01
    154 F   6 C    -1.567088422432E-01  2.446746971019E-01  3.033393252950E-01
    155 F   6 C     2.446746971019E-01  3.033393252950E-01 -1.567088422432E-01
    156 F   6 C     1.567088422432E-01 -2.553253028981E-01  1.966606747050E-01
    157 F   6 C    -9.329115775680E-02  5.333932529500E-02  5.325302898100E-03
    158 F   6 C     9.329115775680E-02  4.466606747050E-01  5.325302898100E-03
    159 F   6 C    -4.067088422432E-01  5.333932529500E-02 -5.325302898100E-03
    160 F   6 C    -9.329115775680E-02 -5.333932529500E-02  4.946746971019E-01
    161 F   6 C     5.333932529500E-02  5.325302898100E-03 -9.329115775680E-02
    162 F   6 C     5.325302898100E-03 -9.329115775680E-02  5.333932529500E-02
    163 F   6 C    -5.333932529500E-02  4.946746971019E-01 -9.329115775680E-02
    164 F   6 C     5.325302898100E-03  9.329115775680E-02  4.466606747050E-01
    165 F   6 C     4.466606747050E-01  5.325302898100E-03  9.329115775680E-02
    166 F   6 C    -5.325302898100E-03 -4.067088422432E-01  5.333932529500E-02
    167 F   6 C     5.333932529500E-02 -5.325302898100E-03 -4.067088422432E-01
    168 F   6 C     4.946746971019E-01 -9.329115775680E-02 -5.333932529500E-02
    169 T   6 C    -2.117802944718E-01 -2.881709412031E-01 -2.366154523253E-01
    170 F   6 C     2.117802944718E-01 -2.118290587969E-01 -2.366154523253E-01
    171 F   6 C     2.882197055282E-01 -2.118290587969E-01  2.366154523253E-01
    172 F   6 C     2.117802944718E-01  2.118290587969E-01 -2.633845476747E-01
    173 F   6 C    -2.366154523253E-01 -2.117802944718E-01 -2.881709412031E-01
    174 F   6 C    -2.881709412031E-01 -2.366154523253E-01 -2.117802944718E-01
    175 F   6 C    -2.633845476747E-01  2.117802944718E-01  2.118290587969E-01
    176 F   6 C    -2.118290587969E-01 -2.366154523253E-01  2.117802944718E-01
    177 F   6 C    -2.366154523253E-01  2.117802944718E-01 -2.118290587969E-01
    178 F   6 C    -2.118290587969E-01  2.366154523253E-01  2.882197055282E-01
    179 F   6 C     2.366154523253E-01  2.882197055282E-01 -2.118290587969E-01
    180 F   6 C     2.118290587969E-01 -2.633845476747E-01  2.117802944718E-01
    181 F   6 C    -3.817094120310E-02  3.821970552820E-02  1.338454767470E-02
    182 F   6 C     3.817094120310E-02  4.617802944718E-01  1.338454767470E-02
    183 F   6 C    -4.618290587969E-01  3.821970552820E-02 -1.338454767470E-02
    184 F   6 C    -3.817094120310E-02 -3.821970552820E-02  4.866154523253E-01
    185 F   6 C     3.821970552820E-02  1.338454767470E-02 -3.817094120310E-02
    186 F   6 C     1.338454767470E-02 -3.817094120310E-02  3.821970552820E-02
    187 F   6 C    -3.821970552820E-02  4.866154523253E-01 -3.817094120310E-02
    188 F   6 C     1.338454767470E-02  3.817094120310E-02  4.617802944718E-01
    189 F   6 C     4.617802944718E-01  1.338454767470E-02  3.817094120310E-02
    190 F   6 C    -1.338454767470E-02 -4.618290587969E-01  3.821970552820E-02
    191 F   6 C     3.821970552820E-02 -1.338454767470E-02 -4.618290587969E-01
    192 F   6 C     4.866154523253E-01 -3.817094120310E-02 -3.821970552820E-02
    193 T   7 N     3.326830867554E-01  1.446002390234E-01  2.077581230191E-01
    194 F   7 N     1.673169132446E-01 -1.446002390234E-01 -2.922418769809E-01
    195 F   7 N    -1.673169132446E-01  3.553997609766E-01 -2.077581230191E-01
    196 F   7 N     1.673169132446E-01  1.446002390234E-01 -2.077581230191E-01
    197 F   7 N     2.077581230191E-01  3.326830867554E-01  1.446002390234E-01
    198 F   7 N     1.446002390234E-01  2.077581230191E-01  3.326830867554E-01
    199 F   7 N    -2.077581230191E-01  1.673169132446E-01  1.446002390234E-01
    200 F   7 N    -1.446002390234E-01 -2.922418769809E-01  1.673169132446E-01
    201 F   7 N    -2.922418769809E-01  1.673169132446E-01 -1.446002390234E-01
    202 F   7 N     3.553997609766E-01 -2.077581230191E-01 -1.673169132446E-01
    203 F   7 N    -2.077581230191E-01 -1.673169132446E-01  3.553997609766E-01
    204 F   7 N     1.446002390234E-01 -2.077581230191E-01  1.673169132446E-01
    205 F   7 N    -1.053997609766E-01  8.268308675540E-02 -4.224187698090E-02
    206 F   7 N     1.053997609766E-01  4.173169132446E-01 -4.224187698090E-02
    207 F   7 N    -3.946002390234E-01  8.268308675540E-02  4.224187698090E-02
    208 F   7 N    -1.053997609766E-01 -8.268308675540E-02 -4.577581230191E-01
    209 F   7 N     8.268308675540E-02 -4.224187698090E-02 -1.053997609766E-01
    210 F   7 N    -4.224187698090E-02 -1.053997609766E-01  8.268308675540E-02
    211 F   7 N    -8.268308675540E-02 -4.577581230191E-01 -1.053997609766E-01
    212 F   7 N    -4.224187698090E-02  1.053997609766E-01  4.173169132446E-01
    213 F   7 N     4.173169132446E-01 -4.224187698090E-02  1.053997609766E-01
    214 F   7 N     4.224187698090E-02 -3.946002390234E-01  8.268308675540E-02
    215 F   7 N     8.268308675540E-02  4.224187698090E-02 -3.946002390234E-01
    216 F   7 N    -4.577581230191E-01 -1.053997609766E-01 -8.268308675540E-02
    217 T   7 N    -2.522925485931E-01 -2.782498572010E-01 -1.986674465560E-01
    218 F   7 N     2.522925485931E-01 -2.217501427990E-01 -1.986674465560E-01
    219 F   7 N     2.477074514069E-01 -2.217501427990E-01  1.986674465560E-01
    220 F   7 N    -2.477074514069E-01 -2.782498572010E-01  1.986674465560E-01
    221 F   7 N    -1.986674465560E-01 -2.522925485931E-01 -2.782498572010E-01
    222 F   7 N    -2.782498572010E-01 -1.986674465560E-01 -2.522925485931E-01
    223 F   7 N     1.986674465560E-01 -2.477074514069E-01 -2.782498572010E-01
    224 F   7 N    -2.217501427990E-01 -1.986674465560E-01  2.522925485931E-01
    225 F   7 N    -1.986674465560E-01  2.522925485931E-01 -2.217501427990E-01
    226 F   7 N    -2.217501427990E-01  1.986674465560E-01  2.477074514069E-01
    227 F   7 N     1.986674465560E-01  2.477074514069E-01 -2.217501427990E-01
    228 F   7 N    -2.782498572010E-01  1.986674465560E-01 -2.477074514069E-01
    229 F   7 N    -2.824985720100E-02 -2.292548593100E-03  5.133255344400E-02
    230 F   7 N     2.824985720100E-02 -4.977074514069E-01  5.133255344400E-02
    231 F   7 N    -4.717501427990E-01 -2.292548593100E-03 -5.133255344400E-02
    232 F   7 N    -2.824985720100E-02  2.292548593100E-03  4.486674465560E-01
    233 F   7 N    -2.292548593100E-03  5.133255344400E-02 -2.824985720100E-02
    234 F   7 N     5.133255344400E-02 -2.824985720100E-02 -2.292548593100E-03
    235 F   7 N     2.292548593100E-03  4.486674465560E-01 -2.824985720100E-02
    236 F   7 N     5.133255344400E-02  2.824985720100E-02 -4.977074514069E-01
    237 F   7 N    -4.977074514069E-01  5.133255344400E-02  2.824985720100E-02
    238 F   7 N    -5.133255344400E-02 -4.717501427990E-01 -2.292548593100E-03
    239 F   7 N    -2.292548593100E-03 -5.133255344400E-02 -4.717501427990E-01
    240 F   7 N     4.486674465560E-01 -2.824985720100E-02  2.292548593100E-03
    241 T 246 PD   -3.963392770075E-02  7.536698408803E-02 -9.588142337891E-02
    242 F 246 PD    3.963392770075E-02  4.246330159120E-01 -9.588142337891E-02
    243 F 246 PD   -3.963392770075E-02 -7.536698408803E-02 -4.041185766211E-01
    244 F 246 PD   -4.603660722993E-01  7.536698408803E-02  9.588142337891E-02
    245 F 246 PD   -9.588142337891E-02 -3.963392770075E-02  7.536698408803E-02
    246 F 246 PD    7.536698408803E-02 -9.588142337891E-02 -3.963392770075E-02
    247 F 246 PD    9.588142337891E-02 -4.603660722993E-01  7.536698408803E-02
    248 F 246 PD    4.246330159120E-01 -9.588142337891E-02  3.963392770075E-02
    249 F 246 PD   -9.588142337891E-02  3.963392770075E-02  4.246330159120E-01
    250 F 246 PD   -7.536698408803E-02 -4.041185766211E-01 -3.963392770075E-02
    251 F 246 PD   -4.041185766211E-01 -3.963392770075E-02 -7.536698408803E-02
    252 F 246 PD    7.536698408803E-02  9.588142337891E-02 -4.603660722993E-01
    253 F 246 PD    3.253669840880E-01  2.103660722992E-01  1.541185766211E-01
    254 F 246 PD    1.746330159120E-01 -2.103660722992E-01 -3.458814233789E-01
    255 F 246 PD    1.746330159120E-01  2.103660722993E-01 -1.541185766211E-01
    256 F 246 PD   -1.746330159120E-01  2.896339277008E-01 -1.541185766211E-01
    257 F 246 PD    2.103660722992E-01  1.541185766211E-01  3.253669840880E-01
    258 F 246 PD    1.541185766211E-01  3.253669840880E-01  2.103660722993E-01
    259 F 246 PD    2.896339277007E-01 -1.541185766211E-01 -1.746330159120E-01
    260 F 246 PD   -3.458814233789E-01  1.746330159120E-01 -2.103660722992E-01
    261 F 246 PD   -2.103660722993E-01 -3.458814233789E-01  1.746330159120E-01
    262 F 246 PD   -1.541185766211E-01  1.746330159120E-01  2.103660722993E-01
    263 F 246 PD    2.103660722992E-01 -1.541185766211E-01  1.746330159120E-01
    264 F 246 PD   -1.541185766211E-01 -1.746330159120E-01  2.896339277007E-01
    265 T  17 CL   -8.619068161587E-02  1.019528615896E-01 -1.747076318565E-01
    266 F  17 CL    8.619068161587E-02  3.980471384104E-01 -1.747076318565E-01
    267 F  17 CL   -8.619068161587E-02 -1.019528615896E-01 -3.252923681435E-01
    268 F  17 CL   -4.138093183841E-01  1.019528615896E-01  1.747076318565E-01
    269 F  17 CL   -1.747076318565E-01 -8.619068161587E-02  1.019528615896E-01
    270 F  17 CL    1.019528615896E-01 -1.747076318565E-01 -8.619068161587E-02
    271 F  17 CL    1.747076318565E-01 -4.138093183841E-01  1.019528615896E-01
    272 F  17 CL    3.980471384104E-01 -1.747076318565E-01  8.619068161587E-02
    273 F  17 CL   -1.747076318565E-01  8.619068161587E-02  3.980471384104E-01
    274 F  17 CL   -1.019528615896E-01 -3.252923681435E-01 -8.619068161587E-02
    275 F  17 CL   -3.252923681435E-01 -8.619068161587E-02 -1.019528615896E-01
    276 F  17 CL    1.019528615896E-01  1.747076318565E-01 -4.138093183841E-01
    277 F  17 CL    3.519528615896E-01  1.638093183841E-01  7.529236814350E-02
    278 F  17 CL    1.480471384104E-01 -1.638093183841E-01 -4.247076318565E-01
    279 F  17 CL    1.480471384104E-01  1.638093183841E-01 -7.529236814350E-02
    280 F  17 CL   -1.480471384104E-01  3.361906816159E-01 -7.529236814350E-02
    281 F  17 CL    1.638093183841E-01  7.529236814350E-02  3.519528615896E-01
    282 F  17 CL    7.529236814350E-02  3.519528615896E-01  1.638093183841E-01
    283 F  17 CL    3.361906816159E-01 -7.529236814350E-02 -1.480471384104E-01
    284 F  17 CL   -4.247076318565E-01  1.480471384104E-01 -1.638093183841E-01
    285 F  17 CL   -1.638093183841E-01 -4.247076318565E-01  1.480471384104E-01
    286 F  17 CL   -7.529236814350E-02  1.480471384104E-01  1.638093183841E-01
    287 F  17 CL    1.638093183841E-01 -7.529236814350E-02  1.480471384104E-01
    288 F  17 CL   -7.529236814350E-02 -1.480471384104E-01  3.361906816159E-01
    289 T   6 C     3.750000000000E-01 -5.869763100128E-17  2.500000000000E-01
    290 F   6 C     1.250000000000E-01  2.844044596307E-18 -2.500000000000E-01
    291 F   6 C     2.500000000000E-01  3.750000000000E-01 -5.869763100128E-17
    292 F   6 C    -6.688732961648E-17  2.500000000000E-01  3.750000000000E-01
    293 F   6 C    -2.500000000000E-01  1.250000000000E-01 -1.387778780781E-17
    294 F   6 C    -2.456909584560E-17 -2.500000000000E-01  1.250000000000E-01

 T = ATOM BELONGING TO THE ASYMMETRIC UNIT

 ****   24 SYMMOPS - TRANSLATORS IN FRACTIONAL UNITS
 **** MATRICES AND TRANSLATORS IN THE CRYSTALLOGRAPHIC REFERENCE FRAME
   V INV                    ROTATION MATRICES                   TRANSLATORS
   1   1  1.00  0.00  0.00  0.00  1.00  0.00  0.00  0.00  1.00  0.00  0.00  0.00
   2   2  0.00  1.00 -1.00  1.00 -0.00 -1.00  0.00 -0.00 -1.00  0.50 -0.00  0.50
   3   3 -1.00 -0.00  0.00 -1.00  0.00  1.00 -1.00  1.00  0.00  0.50  0.50 -0.00
   4   4 -0.00 -1.00  1.00  0.00 -1.00 -0.00  1.00 -1.00 -0.00  0.00  0.50  0.50
   5   6 -0.00  0.00  1.00  1.00  0.00 -0.00 -0.00  1.00  0.00  0.00  0.00  0.00
   6   5 -0.00  1.00  0.00 -0.00  0.00  1.00  1.00 -0.00  0.00  0.00  0.00  0.00
   7   8  1.00 -1.00 -0.00 -0.00 -1.00  1.00  0.00 -1.00 -0.00  0.50 -0.00  0.50
   8   7  1.00 -0.00 -1.00  0.00 -0.00 -1.00 -0.00  1.00 -1.00  0.00  0.50  0.50
   9  10  0.00 -0.00 -1.00  0.00  1.00 -1.00  1.00 -0.00 -1.00  0.50  0.50 -0.00
  10   9 -1.00  0.00  1.00 -1.00  1.00  0.00 -1.00  0.00 -0.00  0.50 -0.00  0.50
  11  12 -1.00  1.00  0.00 -1.00 -0.00  0.00 -1.00  0.00  1.00  0.00  0.50  0.50
  12  11  0.00 -1.00 -0.00  1.00 -1.00 -0.00  0.00 -1.00  1.00  0.50  0.50 -0.00
[...]
  91 C    6 -0.000  0.000 -0.000 -0.000 -0.000 -0.000  0.000
  92 C    6 -0.000  0.000 -0.000 -0.000 -0.000 -0.000  0.000
  93 C    6 -0.000  0.000 -0.000 -0.000 -0.000 -0.000  0.000
  94 C    6 -0.000  0.000 -0.000 -0.000 -0.000 -0.000  0.000
  95 C    6 -0.000  0.000 -0.000 -0.000 -0.000 -0.000  0.000
  96 C    6 -0.000  0.000 -0.000 -0.000 -0.000 -0.000  0.000
  97 H    1  0.000  0.000  0.000  0.000
  98 H    1  0.000  0.000  0.000  0.000
  99 H    1  0.000  0.000  0.000  0.000
 100 H    1  0.000  0.000  0.000  0.000
 101 H    1  0.000  0.000  0.000  0.000
 102 H    1  0.000  0.000  0.000  0.000
 103 H    1  0.000  0.000  0.000  0.000
 104 H    1  0.000  0.000  0.000  0.000
 105 H    1  0.000  0.000  0.000  0.000
 106 H    1  0.000  0.000  0.000  0.000
 107 H    1  0.000  0.000  0.000  0.000
 108 H    1  0.000  0.000  0.000  0.000
 109 H    1  0.000  0.000  0.000  0.000
 110 H    1  0.000  0.000  0.000  0.000
 111 H    1  0.000  0.000  0.000  0.000
 112 H    1  0.000  0.000  0.000  0.000
 113 H    1  0.000  0.000  0.000  0.000
 114 H    1  0.000  0.000  0.000  0.000
 115 H    1  0.000  0.000  0.000  0.000
 116 H    1  0.000  0.000  0.000  0.000
 117 H    1  0.000  0.000  0.000  0.000
 118 H    1  0.000  0.000  0.000  0.000
 119 H    1  0.000  0.000  0.000  0.000
 120 H    1  0.000  0.000  0.000  0.000
 121 N    7  0.000 -0.000  0.000 -0.000  0.000  0.000  0.000
 122 N    7  0.000 -0.000  0.000 -0.000  0.000  0.000  0.000
 123 N    7  0.000 -0.000  0.000 -0.000  0.000  0.000  0.000
 124 N    7  0.000 -0.000  0.000 -0.000  0.000  0.000  0.000
 125 N    7  0.000 -0.000  0.000 -0.000  0.000  0.000  0.000
 126 N    7  0.000 -0.000  0.000 -0.000  0.000  0.000  0.000
 127 N    7  0.000 -0.000  0.000 -0.000  0.000  0.000  0.000
 128 N    7  0.000 -0.000  0.000 -0.000  0.000  0.000  0.000
 129 N    7  0.000 -0.000  0.000 -0.000  0.000  0.000  0.000
 130 N    7  0.000 -0.000  0.000 -0.000  0.000  0.000  0.000
 131 N    7  0.000 -0.000  0.000 -0.000  0.000  0.000  0.000
 132 N    7  0.000 -0.000  0.000 -0.000  0.000  0.000  0.000
 133 N    7  0.000 -0.000  0.000 -0.000  0.000  0.000  0.000
 134 N    7  0.000 -0.000  0.000 -0.000  0.000  0.000  0.000
 135 N    7  0.000 -0.000  0.000 -0.000  0.000  0.000  0.000
 136 N    7  0.000 -0.000  0.000 -0.000  0.000  0.000  0.000
 137 N    7  0.000 -0.000  0.000 -0.000  0.000  0.000  0.000
 138 N    7  0.000 -0.000  0.000 -0.000  0.000  0.000  0.000
 139 N    7  0.000 -0.000  0.000 -0.000  0.000  0.000  0.000
 140 N    7  0.000 -0.000  0.000 -0.000  0.000  0.000  0.000
 141 N    7  0.000 -0.000  0.000 -0.000  0.000  0.000  0.000
 142 N    7  0.000 -0.000  0.000 -0.000  0.000  0.000  0.000
 143 N    7  0.000 -0.000  0.000 -0.000  0.000  0.000  0.000
 144 N    7  0.000 -0.000  0.000 -0.000  0.000  0.000  0.000
 145 C    6  0.000 -0.000 -0.000 -0.000  0.000  0.000  0.000
 146 C    6  0.000 -0.000 -0.000 -0.000  0.000  0.000  0.000
 147 C    6  0.000 -0.000 -0.000 -0.000  0.000  0.000  0.000
 148 C    6  0.000 -0.000 -0.000 -0.000  0.000  0.000  0.000
 149 C    6  0.000 -0.000 -0.000 -0.000  0.000  0.000  0.000
 150 C    6  0.000 -0.000 -0.000 -0.000  0.000  0.000  0.000
 151 C    6  0.000 -0.000 -0.000 -0.000  0.000  0.000  0.000
 152 C    6  0.000 -0.000 -0.000 -0.000  0.000  0.000  0.000
 153 C    6  0.000 -0.000 -0.000 -0.000  0.000  0.000  0.000
 154 C    6  0.000 -0.000 -0.000 -0.000  0.000  0.000  0.000
 155 C    6  0.000 -0.000 -0.000 -0.000  0.000  0.000  0.000
 156 C    6  0.000 -0.000 -0.000 -0.000  0.000  0.000  0.000
 157 C    6  0.000 -0.000 -0.000 -0.000  0.000  0.000  0.000
 158 C    6  0.000 -0.000 -0.000 -0.000  0.000  0.000  0.000
 159 C    6  0.000 -0.000 -0.000 -0.000  0.000  0.000  0.000
 160 C    6  0.000 -0.000 -0.000 -0.000  0.000  0.000  0.000
 161 C    6  0.000 -0.000 -0.000 -0.000  0.000  0.000  0.000
 162 C    6  0.000 -0.000 -0.000 -0.000  0.000  0.000  0.000
 163 C    6  0.000 -0.000 -0.000 -0.000  0.000  0.000  0.000
 164 C    6  0.000 -0.000 -0.000 -0.000  0.000  0.000  0.000
 165 C    6  0.000 -0.000 -0.000 -0.000  0.000  0.000  0.000
 166 C    6  0.000 -0.000 -0.000 -0.000  0.000  0.000  0.000
 167 C    6  0.000 -0.000 -0.000 -0.000  0.000  0.000  0.000
 168 C    6  0.000 -0.000 -0.000 -0.000  0.000  0.000  0.000
 169 C    6  0.001 -0.000  0.000 -0.000  0.000  0.000  0.000
 170 C    6  0.001 -0.000  0.000 -0.000  0.000  0.000  0.000
 171 C    6  0.001 -0.000  0.000 -0.000  0.000  0.000  0.000
 172 C    6  0.001 -0.000  0.000 -0.000  0.000  0.000  0.000
 173 C    6  0.001 -0.000  0.000 -0.000  0.000  0.000  0.000
 174 C    6  0.001 -0.000  0.000 -0.000  0.000  0.000  0.000
 175 C    6  0.001 -0.000  0.000 -0.000  0.000  0.000  0.000
 176 C    6  0.001 -0.000  0.000 -0.000  0.000  0.000  0.000
 177 C    6  0.001 -0.000  0.000 -0.000  0.000  0.000  0.000
 178 C    6  0.001 -0.000  0.000 -0.000  0.000  0.000  0.000
 179 C    6  0.001 -0.000  0.000 -0.000  0.000  0.000  0.000
 180 C    6  0.001 -0.000  0.000 -0.000  0.000  0.000  0.000
 181 C    6  0.001 -0.000  0.000 -0.000  0.000  0.000  0.000
 182 C    6  0.001 -0.000  0.000 -0.000  0.000  0.000  0.000
 183 C    6  0.001 -0.000  0.000 -0.000  0.000  0.000  0.000
 184 C    6  0.001 -0.000  0.000 -0.000  0.000  0.000  0.000
 185 C    6  0.001 -0.000  0.000 -0.000  0.000  0.000  0.000
 186 C    6  0.001 -0.000  0.000 -0.000  0.000  0.000  0.000
 187 C    6  0.001 -0.000  0.000 -0.000  0.000  0.000  0.000
 188 C    6  0.001 -0.000  0.000 -0.000  0.000  0.000  0.000
 189 C    6  0.001 -0.000  0.000 -0.000  0.000  0.000  0.000
 190 C    6  0.001 -0.000  0.000 -0.000  0.000  0.000  0.000
 191 C    6  0.001 -0.000  0.000 -0.000  0.000  0.000  0.000
 192 C    6  0.001 -0.000  0.000 -0.000  0.000  0.000  0.000
 193 N    7  0.000 -0.000  0.000 -0.000  0.000  0.000  0.000
 194 N    7  0.000 -0.000  0.000 -0.000  0.000  0.000  0.000
 195 N    7  0.000 -0.000  0.000 -0.000  0.000  0.000  0.000
 196 N    7  0.000 -0.000  0.000 -0.000  0.000  0.000  0.000
 197 N    7  0.000 -0.000  0.000 -0.000  0.000  0.000  0.000
 198 N    7  0.000 -0.000  0.000 -0.000  0.000  0.000  0.000
 199 N    7  0.000 -0.000  0.000 -0.000  0.000  0.000  0.000
 200 N    7  0.000 -0.000  0.000 -0.000  0.000  0.000  0.000
 201 N    7  0.000 -0.000  0.000 -0.000  0.000  0.000  0.000
 202 N    7  0.000 -0.000  0.000 -0.000  0.000  0.000  0.000
 203 N    7  0.000 -0.000  0.000 -0.000  0.000  0.000  0.000
 204 N    7  0.000 -0.000  0.000 -0.000  0.000  0.000  0.000
 205 N    7  0.000 -0.000  0.000 -0.000  0.000  0.000  0.000
 206 N    7  0.000 -0.000  0.000 -0.000  0.000  0.000  0.000
 207 N    7  0.000 -0.000  0.000 -0.000  0.000  0.000  0.000
 208 N    7  0.000 -0.000  0.000 -0.000  0.000  0.000  0.000
 209 N    7  0.000 -0.000  0.000 -0.000  0.000  0.000  0.000
 210 N    7  0.000 -0.000  0.000 -0.000  0.000  0.000  0.000
 211 N    7  0.000 -0.000  0.000 -0.000  0.000  0.000  0.000
 212 N    7  0.000 -0.000  0.000 -0.000  0.000  0.000  0.000
 213 N    7  0.000 -0.000  0.000 -0.000  0.000  0.000  0.000
 214 N    7  0.000 -0.000  0.000 -0.000  0.000  0.000  0.000
 215 N    7  0.000 -0.000  0.000 -0.000  0.000  0.000  0.000
 216 N    7  0.000 -0.000  0.000 -0.000  0.000  0.000  0.000
 217 N    7  0.001  0.000  0.000 -0.000  0.000  0.000  0.000
 218 N    7  0.001  0.000  0.000 -0.000  0.000  0.000  0.000
 219 N    7  0.001  0.000  0.000 -0.000  0.000  0.000  0.000
 220 N    7  0.001  0.000  0.000 -0.000  0.000  0.000  0.000
 221 N    7  0.001  0.000  0.000 -0.000  0.000  0.000  0.000
 222 N    7  0.001  0.000  0.000 -0.000  0.000  0.000  0.000
 223 N    7  0.001  0.000  0.000 -0.000  0.000  0.000  0.000
 224 N    7  0.001  0.000  0.000 -0.000  0.000  0.000  0.000
 225 N    7  0.001  0.000  0.000 -0.000  0.000  0.000  0.000
 226 N    7  0.001  0.000  0.000 -0.000  0.000  0.000  0.000
 227 N    7  0.001  0.000  0.000 -0.000  0.000  0.000  0.000
 228 N    7  0.001  0.000  0.000 -0.000  0.000  0.000  0.000
 229 N    7  0.001  0.000  0.000 -0.000  0.000  0.000  0.000
 230 N    7  0.001  0.000  0.000 -0.000  0.000  0.000  0.000
 231 N    7  0.001  0.000  0.000 -0.000  0.000  0.000  0.000
 232 N    7  0.001  0.000  0.000 -0.000  0.000  0.000  0.000
 233 N    7  0.001  0.000  0.000 -0.000  0.000  0.000  0.000
 234 N    7  0.001  0.000  0.000 -0.000  0.000  0.000  0.000
 235 N    7  0.001  0.000  0.000 -0.000  0.000  0.000  0.000
 236 N    7  0.001  0.000  0.000 -0.000  0.000  0.000  0.000
 237 N    7  0.001  0.000  0.000 -0.000  0.000  0.000  0.000
 238 N    7  0.001  0.000  0.000 -0.000  0.000  0.000  0.000
 239 N    7  0.001  0.000  0.000 -0.000  0.000  0.000  0.000
 240 N    7  0.001  0.000  0.000 -0.000  0.000  0.000  0.000
 241 PD 246  0.000 -0.000  0.000  0.000  0.000  0.000  0.000 -0.000  0.000
 242 PD 246  0.000 -0.000  0.000  0.000  0.000  0.000  0.000 -0.000  0.000
 243 PD 246  0.000 -0.000  0.000  0.000  0.000  0.000  0.000 -0.000  0.000
 244 PD 246  0.000 -0.000  0.000  0.000  0.000  0.000  0.000 -0.000  0.000
 245 PD 246  0.000 -0.000  0.000  0.000  0.000  0.000  0.000 -0.000  0.000
 246 PD 246  0.000 -0.000  0.000  0.000  0.000  0.000  0.000 -0.000  0.000
 247 PD 246  0.000 -0.000  0.000  0.000  0.000  0.000  0.000 -0.000  0.000
 248 PD 246  0.000 -0.000  0.000  0.000  0.000  0.000  0.000 -0.000  0.000
 249 PD 246  0.000 -0.000  0.000  0.000  0.000  0.000  0.000 -0.000  0.000
 250 PD 246  0.000 -0.000  0.000  0.000  0.000  0.000  0.000 -0.000  0.000
 251 PD 246  0.000 -0.000  0.000  0.000  0.000  0.000  0.000 -0.000  0.000
 252 PD 246  0.000 -0.000  0.000  0.000  0.000  0.000  0.000 -0.000  0.000
 253 PD 246  0.000 -0.000  0.000  0.000  0.000  0.000  0.000 -0.000  0.000
 254 PD 246  0.000 -0.000  0.000  0.000  0.000  0.000  0.000 -0.000  0.000
 255 PD 246  0.000 -0.000  0.000  0.000  0.000  0.000  0.000 -0.000  0.000
 256 PD 246  0.000 -0.000  0.000  0.000  0.000  0.000  0.000 -0.000  0.000
 257 PD 246  0.000 -0.000  0.000  0.000  0.000  0.000  0.000 -0.000  0.000
 258 PD 246  0.000 -0.000  0.000  0.000  0.000  0.000  0.000 -0.000  0.000
 259 PD 246  0.000 -0.000  0.000  0.000  0.000  0.000  0.000 -0.000  0.000
 260 PD 246  0.000 -0.000  0.000  0.000  0.000  0.000  0.000 -0.000  0.000
 261 PD 246  0.000 -0.000  0.000  0.000  0.000  0.000  0.000 -0.000  0.000
 262 PD 246  0.000 -0.000  0.000  0.000  0.000  0.000  0.000 -0.000  0.000
 263 PD 246  0.000 -0.000  0.000  0.000  0.000  0.000  0.000 -0.000  0.000
 264 PD 246  0.000 -0.000  0.000  0.000  0.000  0.000  0.000 -0.000  0.000
 265 CL  17  0.000  0.000  0.000  0.000 -0.000  0.000  0.000  0.000  0.000
 266 CL  17  0.000  0.000  0.000  0.000 -0.000  0.000  0.000  0.000  0.000
 267 CL  17  0.000  0.000  0.000  0.000 -0.000  0.000  0.000  0.000  0.000
 268 CL  17  0.000  0.000  0.000  0.000 -0.000  0.000  0.000  0.000  0.000
 269 CL  17  0.000  0.000  0.000  0.000 -0.000  0.000  0.000  0.000  0.000
 270 CL  17  0.000  0.000  0.000  0.000 -0.000  0.000  0.000  0.000  0.000
 271 CL  17  0.000  0.000  0.000  0.000 -0.000  0.000  0.000  0.000  0.000
 272 CL  17  0.000  0.000  0.000  0.000 -0.000  0.000  0.000  0.000  0.000
 273 CL  17  0.000  0.000  0.000  0.000 -0.000  0.000  0.000  0.000  0.000
 274 CL  17  0.000  0.000  0.000  0.000 -0.000  0.000  0.000  0.000  0.000
 275 CL  17  0.000  0.000  0.000  0.000 -0.000  0.000  0.000  0.000  0.000
 276 CL  17  0.000  0.000  0.000  0.000 -0.000  0.000  0.000  0.000  0.000
 277 CL  17  0.000  0.000  0.000  0.000 -0.000  0.000  0.000  0.000  0.000
 278 CL  17  0.000  0.000  0.000  0.000 -0.000  0.000  0.000  0.000  0.000
 279 CL  17  0.000  0.000  0.000  0.000 -0.000  0.000  0.000  0.000  0.000
 280 CL  17  0.000  0.000  0.000  0.000 -0.000  0.000  0.000  0.000  0.000
 281 CL  17  0.000  0.000  0.000  0.000 -0.000  0.000  0.000  0.000  0.000
 282 CL  17  0.000  0.000  0.000  0.000 -0.000  0.000  0.000  0.000  0.000
 283 CL  17  0.000  0.000  0.000  0.000 -0.000  0.000  0.000  0.000  0.000
 284 CL  17  0.000  0.000  0.000  0.000 -0.000  0.000  0.000  0.000  0.000
 285 CL  17  0.000  0.000  0.000  0.000 -0.000  0.000  0.000  0.000  0.000
 286 CL  17  0.000  0.000  0.000  0.000 -0.000  0.000  0.000  0.000  0.000
 287 CL  17  0.000  0.000  0.000  0.000 -0.000  0.000  0.000  0.000  0.000
 288 CL  17  0.000  0.000  0.000  0.000 -0.000  0.000  0.000  0.000  0.000
 289 C    6 -0.000 -0.000 -0.000 -0.000 -0.000 -0.000  0.000
 290 C    6 -0.000 -0.000 -0.000 -0.000 -0.000 -0.000  0.000
 291 C    6 -0.000 -0.000 -0.000 -0.000 -0.000 -0.000  0.000
 292 C    6 -0.000 -0.000 -0.000 -0.000 -0.000 -0.000  0.000
 293 C    6 -0.000 -0.000 -0.000 -0.000 -0.000 -0.000  0.000
 294 C    6 -0.000 -0.000 -0.000 -0.000 -0.000 -0.000  0.000

 OVERLAP POPULATION CONDENSED TO ATOMS FOR FIRST   6 NEIGHBORS

 ATOM A   1 C    ATOM B     CELL      R(AB)/AU R(AB)/ANG    OVPOP(AB)
                 25 H    (  0  0  0)     2.058     1.089     0.000
                193 N    (  0  0  0)     2.504     1.325     0.000
                 49 C    (  0  0  0)     2.657     1.406    -0.000
                145 C    (  0  0  0)     4.342     2.297    -0.000
                 73 C    (  0  0  0)     4.526     2.395    -0.000
                289 C    (  0  0  0)     4.864     2.574     0.000

 ATOM A  25 H    ATOM B     CELL      R(AB)/AU R(AB)/ANG    OVPOP(AB)
                  1 C    (  0  0  0)     2.058     1.089     0.000
                193 N    (  0  0  0)     3.848     2.036     0.000
                 49 C    (  0  0  0)     4.169     2.206    -0.000
                 93 C    (  0  0  0)     4.472     2.367    -0.000
                 69 C    (  0  0  0)     4.767     2.523     0.000
                141 N    (  0  0  0)     5.131     2.715    -0.000

 ATOM A  49 C    ATOM B     CELL      R(AB)/AU R(AB)/ANG    OVPOP(AB)
                  1 C    (  0  0  0)     2.657     1.406    -0.000
                 73 C    (  0  0  0)     2.672     1.414    -0.000
                289 C    (  0  0  0)     2.881     1.525     0.000
                 97 H    (  0  0  0)     4.158     2.200    -0.000
                 25 H    (  0  0  0)     4.169     2.206    -0.000
                193 N    (  0  0  0)     4.502     2.382    -0.000

 ATOM A  73 C    ATOM B     CELL      R(AB)/AU R(AB)/ANG    OVPOP(AB)
                 97 H    (  0  0  0)     2.065     1.093    -0.000
                121 N    (  0  0  0)     2.509     1.328     0.000
                 49 C    (  0  0  0)     2.672     1.414    -0.000
                145 C    (  0  0  0)     4.339     2.296    -0.000
                 43 H    (  1  1  1)     4.472     2.367    -0.000
                  1 C    (  0  0  0)     4.526     2.395    -0.000

 ATOM A  97 H    ATOM B     CELL      R(AB)/AU R(AB)/ANG    OVPOP(AB)
                 73 C    (  0  0  0)     2.065     1.093    -0.000
                121 N    (  0  0  0)     3.891     2.059    -0.000
                 49 C    (  0  0  0)     4.158     2.200    -0.000
                 43 H    (  1  1  1)     5.303     2.806    -0.000
                 51 C    (  0  0  0)     5.308     2.809     0.000
                289 C    (  0  0  0)     5.359     2.836    -0.000

 ATOM A 121 N    ATOM B     CELL      R(AB)/AU R(AB)/ANG    OVPOP(AB)
                 73 C    (  0  0  0)     2.509     1.328     0.000
                145 C    (  0  0  0)     2.599     1.375    -0.000
                 97 H    (  0  0  0)     3.891     2.059    -0.000
                257 PD   (  0  0  0)     3.924     2.076    -0.000
                169 C    (  1  1  1)     4.480     2.371    -0.000
                 49 C    (  0  0  0)     4.520     2.392    -0.000

 ATOM A 145 C    ATOM B     CELL      R(AB)/AU R(AB)/ANG    OVPOP(AB)
                193 N    (  0  0  0)     2.596     1.374    -0.000
                121 N    (  0  0  0)     2.599     1.375    -0.000
                169 C    (  1  1  1)     2.620     1.387     0.000
                 73 C    (  0  0  0)     4.339     2.296    -0.000
                  1 C    (  0  0  0)     4.342     2.297    -0.000
                221 N    (  1  1  1)     4.404     2.330    -0.000

 ATOM A 169 C    ATOM B     CELL      R(AB)/AU R(AB)/ANG    OVPOP(AB)
                217 N    (  0  0  0)     2.560     1.355    -0.000
                221 N    (  0  0  0)     2.565     1.357    -0.000
                145 C    ( -1 -1 -1)     2.620     1.387     0.000
                173 C    (  0  0  0)     4.333     2.293    -0.000
                193 N    ( -1 -1 -1)     4.446     2.353    -0.000
                121 N    ( -1 -1 -1)     4.480     2.371    -0.000

 ATOM A 193 N    ATOM B     CELL      R(AB)/AU R(AB)/ANG    OVPOP(AB)
                  1 C    (  0  0  0)     2.504     1.325     0.000
                145 C    (  0  0  0)     2.596     1.374    -0.000
                 25 H    (  0  0  0)     3.848     2.036     0.000
                253 PD   (  0  0  0)     3.867     2.046    -0.000
                169 C    (  1  1  1)     4.446     2.353    -0.000
                 49 C    (  0  0  0)     4.502     2.382    -0.000

 ATOM A 217 N    ATOM B     CELL      R(AB)/AU R(AB)/ANG    OVPOP(AB)
                169 C    (  0  0  0)     2.560     1.355    -0.000
                174 C    (  0  0  0)     2.565     1.357    -0.000
                257 PD   ( -1 -1 -1)     3.673     1.944    -0.000
                150 C    ( -1 -1 -1)     4.404     2.330    -0.000
                145 C    ( -1 -1 -1)     4.411     2.334    -0.000
                221 N    (  0  0  0)     4.513     2.388    -0.000

 ATOM A 241 PD   ATOM B     CELL      R(AB)/AU R(AB)/ANG    OVPOP(AB)
                233 N    (  0  0  0)     3.673     1.944    -0.000
                205 N    (  0  0  0)     3.867     2.046    -0.000
                137 N    (  0  0  0)     3.924     2.076    -0.000
                265 CL   (  0  0  0)     4.327     2.290    -0.000
                185 C    (  0  0  0)     5.222     2.763     0.000
                181 C    (  0  0  0)     5.239     2.773     0.000

 ATOM A 265 CL   ATOM B     CELL      R(AB)/AU R(AB)/ANG    OVPOP(AB)
                241 PD   (  0  0  0)     4.327     2.290    -0.000
                 37 H    (  0  0  0)     5.462     2.890    -0.000
                113 H    (  0  0  0)     5.858     3.100    -0.000
                205 N    (  0  0  0)     6.139     3.248    -0.000
                137 N    (  0  0  0)     6.263     3.314    -0.000
                 13 C    (  0  0  0)     6.602     3.494     0.000

 ATOM A 289 C    ATOM B     CELL      R(AB)/AU R(AB)/ANG    OVPOP(AB)
                 49 C    (  0  0  0)     2.881     1.525     0.000
                 73 C    (  0  0  0)     4.822     2.552     0.000
                  1 C    (  0  0  0)     4.864     2.574     0.000
                 97 H    (  0  0  0)     5.359     2.836    -0.000
                 25 H    (  0  0  0)     5.490     2.905    -0.000
                121 N    (  0  0  0)     7.081     3.747    -0.000
 EIGENVECTORS IN FORTRAN UNIT  8
 TTTTTTTTTTTTTTTTTTTTTTTTTTTTTT END         TELAPSE     1337.36 TCPU     1329.74
 MMMMM END         USED MEM(MB)     55.07 MAX MEM    279.04 TOT MEM      1321.61
 EEEEEEEEEE TERMINATION  DATE 28 04 2025 TIME 17:00:19.1
NODE    0 CPU TIME =      1329.737
NODE    1 CPU TIME =      1329.156
NODE    2 CPU TIME =      1329.137
NODE    3 CPU TIME =      1329.923
NODE    4 CPU TIME =      1329.259
NODE    5 CPU TIME =      1329.920
NODE    6 CPU TIME =      1329.891
NODE    7 CPU TIME =      1330.254
NODE    8 CPU TIME =      1330.289
NODE    9 CPU TIME =      1328.587
NODE   10 CPU TIME =      1329.833
NODE   11 CPU TIME =      1330.693
NODE   12 CPU TIME =      1330.844
NODE   13 CPU TIME =      1330.244
NODE   14 CPU TIME =      1330.297
NODE   15 CPU TIME =      1330.918
NODE   16 CPU TIME =      1330.292
NODE   17 CPU TIME =      1330.045
NODE   18 CPU TIME =      1328.251
NODE   19 CPU TIME =      1329.890
NODE   20 CPU TIME =      1330.503
NODE   21 CPU TIME =      1330.574
NODE   22 CPU TIME =      1329.775
NODE   23 CPU TIME =      1330.309
    TOTAL CPU TIME =     31918.623
