 PROCESS            3  OF           24  WORKING
 PROCESS            4  OF           24  WORKING
 PROCESS            9  OF           24  WORKING
 PROCESS           10  OF           24  WORKING
 PROCESS           13  OF           24  WORKING
 PROCESS           16  OF           24  WORKING
 PROCESS           17  OF           24  WORKING
 PROCESS           18  OF           24  WORKING
 PROCESS           19  OF           24  WORKING
 PROCESS           20  OF           24  WORKING
 PROCESS           21  OF           24  WORKING
 PROCESS           22  OF           24  WORKING
 PROCESS           23  OF           24  WORKING
 PROCESS            0  OF           24  WORKING
 PROCESS            1  OF           24  WORKING
 PROCESS            2  OF           24  WORKING
 PROCESS            5  OF           24  WORKING
 PROCESS            7  OF           24  WORKING
 PROCESS            8  OF           24  WORKING
 PROCESS           11  OF           24  WORKING
 PROCESS           12  OF           24  WORKING
 PROCESS           14  OF           24  WORKING
 PROCESS           15  OF           24  WORKING
 PROCESS            6  OF           24  WORKING

         
 *******************************************************************************
 *                                                                             *
 *                               CRYSTAL23                                     *
 *                      public : 1.0.1 - October 2022                          *
 *                       HTTP://WWW.CRYSTAL.UNITO.IT                           *
 *                                                                             *
 *                              MAIN AUTHORS                                   *
 *                                                                             *
 *  R. DOVESI(1,11), V.R. SAUNDERS(2), C. ROETTI(1,11), R. ORLANDO(1,11),      *
 *  C.M. ZICOVICH-WILSON(1,3), F. PASCALE(4), B. CIVALLERI(1,11),              *
 *  K. DOLL(5), N.M. HARRISON(6), I.J. BUSH(7), Ph. D'ARCO(8),                 *
 *  M. LLUNELL(9), M. CAUSA'(10), Y. NOEL(8), L. MASCHIO(1,11), A. ERBA(1,11)  *
 *  M. RE'RAT(14), S. CASASSA(1,11), B.G. SEARLE(2), J.K. DESMARAIS(1)         *
 *                                                                             *
 *        CONTRIBUTIONS TO THE CODE HAVE ALSO BEEN GIVEN BY                    *
 *                                                                             *
 *  M. FERRABONE(1,11), M. DE LA PIERRE(1,11), M. FERRERO(1,11),               *
 *  J. BAIMA(1,11), E. ALBANESE(1,11), M.F. PEINTINGER(12), R. BAST(13),       *
 *  B. KIRTMAN(15), V. LACIVITA(1,11), R. DEMICHELIS(1,16)                     *
 *  G. BRANDEBURG(17), S. SALUSTRO(1,11), G. SANSONE(1,11)                     *
 *  M.T. RUGGIERO(18), L.E. DAGA(1), L. DONA'(1), A. COSSARD(1)                *
 *                                                                             *
 * (1) THEORETICAL CHEMISTRY GROUP - UNIVERSITA' DI TORINO - TORINO (ITALY)    *
 * (2) SCIENTIFIC COMPUTING DEPARTMENT - STFC DARESBURY (UK)                   *
 * (3) UNIVERSIDAD AUTONOMA DEL ESTADO DE MORELOS - CUERNAVACA (MEXICO)        *
 * (4) UNIVERSITE' DE LORRAINE - NANCY (FRANCE)                                *
 * (5) UNIVERSITAET STUTTGART- STUTTGART (GERMANY)                             *
 * (6) IMPERIAL COLLEGE - LONDON (UK)                                          *
 * (7) SCIENTIFIC COMPUTING DEPARTMENT - STFC RAL (UK)                         *
 * (8) UPMC - SORBONNE UNIVERSITES - PARIS (FRANCE)                            *
 * (9) UNIVERSIDAD DE BARCELONA - BARCELONA (SPAIN)                            *
 *(10) UNIVERSITA' DI NAPOLI "FEDERICO II" - NAPOLI (ITALY)                    *
 *(11) NIS - NANOSTRUCTURED INTERFACES AND SURFACES - TORINO (ITALY)           *
 *(12) MPI FUER CHEMISCHE ENERGIEKONVERSION - MUELHEIM AN DER RUHR (GERMANY)   *
 *(13) UNIVERSITY OF TROMSO - TROMSO (NORWAY)                                  *
 *(14) UNIVERSITE' DE PAU ET DES PAYS DE L'ADOUR - PAU (FRANCE)                *
 *(15) UNIVERSITY OF CALIFORNIA SANTA BARBARA - SANTA BARBARA (USA)            *
 *(16) CURTIN UNIVERSITY - PERTH (AUSTRALIA)                                   *
 *(17) UNIVERSITY COLLEGE LONDON - LONDON (UK)                                 *
 *(18) UNIVERSITY OF VERMONT - BURLINGTON (USA)                                *
 *                                                                             *
 *******************************************************************************
 EEEEEEEEEE STARTING  DATE 28 04 2025 TIME 16:38:03.9
 PtCltryCOF102_sym                                                               

 CRYSTAL CALCULATION
 (INPUT ACCORDING TO THE INTERNATIONAL TABLES FOR X-RAY CRYSTALLOGRAPHY)
 CRYSTAL FAMILY                       :  CUBIC       
 CRYSTAL CLASS  (GROTH - 1921)        :  CUBIC HEXAKISTETRAHEDRAL             

 SPACE GROUP (NONCENTROSYMMETRIC)     :  I -4 3 D        

 LATTICE PARAMETERS  (ANGSTROMS AND DEGREES) - CONVENTIONAL CELL
        A           B           C        ALPHA        BETA       GAMMA
    23.79046    23.79046    23.79046    90.00000    90.00000    90.00000


 NUMBER OF IRREDUCIBLE ATOMS IN THE CONVENTIONAL CELL:   13

 INPUT COORDINATES

 ATOM AT. N.              COORDINATES
   1   6     3.374046514543E-01  7.620050919280E-02  1.824190529260E-01
   2   1     3.757856547980E-01  8.044463551372E-02  1.576915306247E-01
   3   6     3.349893940644E-01  4.750646864479E-02  2.338920497029E-01
   4   6     2.855630879544E-01  5.392283521658E-02  2.662797645967E-01
   5   1     2.819932607402E-01  3.973708878167E-02  3.098225540487E-01
   6   7     2.392727396945E-01  7.615261847319E-02  2.448656593163E-01
   7   6     2.421733630243E-01  9.404577148149E-02  1.896595086655E-01
   8   6     1.933833011188E-01  1.157277127311E-01  1.660149071056E-01
   9   7     2.921024861206E-01  1.014288226144E-01  1.611213392442E-01
  10   7     1.476357218948E-01  1.192031234901E-01  1.997842545316E-01
  11 278    -8.320352218349E-02  2.961330796731E-02 -1.439454223295E-01
  12  17    -5.793483672726E-02  1.218898333539E-01 -1.572078314960E-01
  13   6     3.750000000000E-01 -1.969677326636E-17  2.500000000000E-01

 *******************************************************************************

 << INFORMATION >>: FROM NOW ON, ALL COORDINATES REFER TO THE PRIMITIVE CELL

 *******************************************************************************

 LATTICE PARAMETERS  (ANGSTROMS AND DEGREES) - PRIMITIVE CELL
       A          B          C        ALPHA      BETA     GAMMA        VOLUME
   20.60314   20.60314   20.60314   109.47122 109.47122 109.47122   6732.534647

 COORDINATES OF THE EQUIVALENT ATOMS (FRACTIONAL UNITS)

 N. ATOM EQUIV AT. N.          X                  Y                  Z

   1   1   1    6 C     2.58619562119E-01 -4.80176295620E-01  4.13605160647E-01
   2   1   2    6 C    -3.93781456267E-01 -1.54985598528E-01  8.63948393529E-02
   3   1   3    6 C     2.41380437881E-01 -3.45014401472E-01  2.61204142262E-01
   4   1   4    6 C    -1.06218543733E-01 -1.98237043803E-02  2.38795857739E-01
   5   1   5    6 C     4.13605160647E-01  2.58619562119E-01 -4.80176295620E-01
   6   1   6    6 C    -4.80176295620E-01  4.13605160647E-01  2.58619562119E-01
   7   1   7    6 C     2.38795857739E-01 -1.06218543733E-01 -1.98237043803E-02
   8   1   8    6 C    -1.54985598528E-01  8.63948393529E-02 -3.93781456267E-01
   9   1   9    6 C     8.63948393529E-02 -3.93781456267E-01 -1.54985598528E-01
  10   1  10    6 C    -3.45014401472E-01  2.61204142262E-01  2.41380437881E-01
  11   1  11    6 C     2.61204142262E-01  2.41380437881E-01 -3.45014401472E-01
  12   1  12    6 C    -1.98237043803E-02  2.38795857739E-01 -1.06218543733E-01
  13   1  13    6 C     1.98237043803E-02 -2.41380437881E-01 -8.63948393529E-02
  14   1  14    6 C     3.45014401472E-01  1.06218543733E-01 -4.13605160647E-01
  15   1  15    6 C     1.54985598528E-01 -2.58619562119E-01 -2.38795857738E-01
  16   1  16    6 C     4.80176295620E-01  3.93781456267E-01 -2.61204142262E-01
  17   1  17    6 C    -2.41380437881E-01 -8.63948393529E-02  1.98237043803E-02
  18   1  18    6 C    -8.63948393529E-02  1.98237043803E-02 -2.41380437881E-01
  19   1  19    6 C     3.93781456267E-01 -2.61204142262E-01  4.80176295620E-01
  20   1  20    6 C    -4.13605160647E-01  3.45014401472E-01  1.06218543733E-01
  21   1  21    6 C     1.06218543733E-01 -4.13605160647E-01  3.45014401472E-01
  22   1  22    6 C    -2.38795857738E-01  1.54985598528E-01 -2.58619562119E-01
  23   1  23    6 C    -2.58619562119E-01 -2.38795857738E-01  1.54985598528E-01
  24   1  24    6 C    -2.61204142262E-01  4.80176295620E-01  3.93781456267E-01

  25   2   1    1 H     2.38136166138E-01 -4.66522814577E-01  4.56230290312E-01
  26   2   2    1 H    -4.22753104889E-01 -2.18094124173E-01  4.37697096883E-02
  27   2   3    1 H     2.61863833862E-01 -2.81905875827E-01  2.95341019284E-01
  28   2   4    1 H    -7.72468951110E-02 -3.34771854227E-02  2.04658980716E-01
  29   2   5    1 H     4.56230290312E-01  2.38136166138E-01 -4.66522814577E-01
  30   2   6    1 H    -4.66522814577E-01  4.56230290312E-01  2.38136166138E-01
  31   2   7    1 H     2.04658980716E-01 -7.72468951110E-02 -3.34771854227E-02
  32   2   8    1 H    -2.18094124173E-01  4.37697096883E-02 -4.22753104889E-01
  33   2   9    1 H     4.37697096883E-02 -4.22753104889E-01 -2.18094124173E-01
  34   2  10    1 H    -2.81905875827E-01  2.95341019284E-01  2.61863833862E-01
  35   2  11    1 H     2.95341019284E-01  2.61863833862E-01 -2.81905875827E-01
  36   2  12    1 H    -3.34771854227E-02  2.04658980716E-01 -7.72468951110E-02
  37   2  13    1 H     3.34771854227E-02 -2.61863833862E-01 -4.37697096883E-02
  38   2  14    1 H     2.81905875827E-01  7.72468951110E-02 -4.56230290312E-01
  39   2  15    1 H     2.18094124173E-01 -2.38136166138E-01 -2.04658980716E-01
  40   2  16    1 H     4.66522814577E-01  4.22753104889E-01 -2.95341019284E-01
  41   2  17    1 H    -2.61863833862E-01 -4.37697096883E-02  3.34771854227E-02
  42   2  18    1 H    -4.37697096883E-02  3.34771854227E-02 -2.61863833862E-01
  43   2  19    1 H     4.22753104889E-01 -2.95341019284E-01  4.66522814577E-01
  44   2  20    1 H    -4.56230290312E-01  2.81905875827E-01  7.72468951110E-02
  45   2  21    1 H     7.72468951110E-02 -4.56230290312E-01  2.81905875827E-01
  46   2  22    1 H    -2.04658980716E-01  2.18094124173E-01 -2.38136166138E-01
  47   2  23    1 H    -2.38136166138E-01 -2.04658980716E-01  2.18094124173E-01
  48   2  24    1 H    -2.95341019284E-01  4.66522814577E-01  4.22753104889E-01

  49   3   1    6 C     2.81398518348E-01 -4.31118556233E-01  3.82495862709E-01
  50   3   2    6 C    -3.13614418942E-01 -1.01097344361E-01  1.17504137291E-01
  51   3   3    6 C     2.18601481652E-01 -3.98902655639E-01  2.87482925420E-01
  52   3   4    6 C    -1.86385581058E-01 -6.88814437673E-02  2.12517074580E-01
  53   3   5    6 C     3.82495862709E-01  2.81398518348E-01 -4.31118556233E-01
  54   3   6    6 C    -4.31118556233E-01  3.82495862709E-01  2.81398518348E-01
  55   3   7    6 C     2.12517074580E-01 -1.86385581058E-01 -6.88814437673E-02
  56   3   8    6 C    -1.01097344361E-01  1.17504137291E-01 -3.13614418942E-01
  57   3   9    6 C     1.17504137291E-01 -3.13614418942E-01 -1.01097344361E-01
  58   3  10    6 C    -3.98902655639E-01  2.87482925420E-01  2.18601481652E-01
  59   3  11    6 C     2.87482925420E-01  2.18601481652E-01 -3.98902655639E-01
  60   3  12    6 C    -6.88814437673E-02  2.12517074580E-01 -1.86385581058E-01
  61   3  13    6 C     6.88814437673E-02 -2.18601481652E-01 -1.17504137291E-01
  62   3  14    6 C     3.98902655639E-01  1.86385581058E-01 -3.82495862709E-01
  63   3  15    6 C     1.01097344361E-01 -2.81398518348E-01 -2.12517074580E-01
  64   3  16    6 C     4.31118556233E-01  3.13614418942E-01 -2.87482925420E-01
  65   3  17    6 C    -2.18601481652E-01 -1.17504137291E-01  6.88814437673E-02
  66   3  18    6 C    -1.17504137291E-01  6.88814437673E-02 -2.18601481652E-01
  67   3  19    6 C     3.13614418942E-01 -2.87482925420E-01  4.31118556233E-01
  68   3  20    6 C    -3.82495862709E-01  3.98902655639E-01  1.86385581058E-01
  69   3  21    6 C     1.86385581058E-01 -3.82495862709E-01  3.98902655639E-01
  70   3  22    6 C    -2.12517074580E-01  1.01097344361E-01 -2.81398518348E-01
  71   3  23    6 C    -2.81398518348E-01 -2.12517074580E-01  1.01097344361E-01
  72   3  24    6 C    -2.87482925420E-01  4.31118556233E-01  3.13614418942E-01

  73   4   1    6 C     3.20202599813E-01 -4.48157147449E-01  3.39485923171E-01
  74   4   2    6 C    -2.87643070620E-01 -1.92833233577E-02  1.60514076829E-01
  75   4   3    6 C     1.79797400187E-01 -4.80716676642E-01  2.31640252738E-01
  76   4   4    6 C    -2.12356929380E-01 -5.18428525511E-02  2.68359747262E-01
  77   4   5    6 C     3.39485923171E-01  3.20202599813E-01 -4.48157147449E-01
  78   4   6    6 C    -4.48157147449E-01  3.39485923171E-01  3.20202599813E-01
  79   4   7    6 C     2.68359747262E-01 -2.12356929380E-01 -5.18428525511E-02
  80   4   8    6 C    -1.92833233577E-02  1.60514076829E-01 -2.87643070620E-01
  81   4   9    6 C     1.60514076829E-01 -2.87643070620E-01 -1.92833233577E-02
  82   4  10    6 C    -4.80716676642E-01  2.31640252738E-01  1.79797400187E-01
  83   4  11    6 C     2.31640252738E-01  1.79797400187E-01 -4.80716676642E-01
  84   4  12    6 C    -5.18428525511E-02  2.68359747262E-01 -2.12356929380E-01
  85   4  13    6 C     5.18428525511E-02 -1.79797400187E-01 -1.60514076829E-01
  86   4  14    6 C     4.80716676642E-01  2.12356929380E-01 -3.39485923171E-01
  87   4  15    6 C     1.92833233577E-02 -3.20202599813E-01 -2.68359747262E-01
  88   4  16    6 C     4.48157147449E-01  2.87643070620E-01 -2.31640252738E-01
  89   4  17    6 C    -1.79797400187E-01 -1.60514076829E-01  5.18428525511E-02
  90   4  18    6 C    -1.60514076829E-01  5.18428525511E-02 -1.79797400187E-01
  91   4  19    6 C     2.87643070620E-01 -2.31640252738E-01  4.48157147449E-01
  92   4  20    6 C    -3.39485923171E-01  4.80716676642E-01  2.12356929380E-01
  93   4  21    6 C     2.12356929380E-01 -3.39485923171E-01  4.80716676642E-01
  94   4  22    6 C    -2.68359747262E-01  1.92833233577E-02 -3.20202599813E-01
  95   4  23    6 C    -3.20202599813E-01 -2.68359747262E-01  1.92833233577E-02
  96   4  24    6 C    -2.31640252738E-01  4.48157147449E-01  2.87643070620E-01

  97   5   1    1 H     3.49559642830E-01 -4.08184185211E-01  3.21730349522E-01
  98   5   2    1 H    -2.29914534733E-01  2.78292933085E-02  1.78269650478E-01
  99   5   3    1 H     1.50440357170E-01  4.72170706691E-01  2.42256171959E-01
 100   5   4    1 H    -2.70085465267E-01 -9.18158147889E-02  2.57743828041E-01
 101   5   5    1 H     3.21730349522E-01  3.49559642830E-01 -4.08184185211E-01
 102   5   6    1 H    -4.08184185211E-01  3.21730349522E-01  3.49559642830E-01
 103   5   7    1 H     2.57743828041E-01 -2.70085465267E-01 -9.18158147889E-02
 104   5   8    1 H     2.78292933085E-02  1.78269650478E-01 -2.29914534733E-01
 105   5   9    1 H     1.78269650478E-01 -2.29914534733E-01  2.78292933085E-02
 106   5  10    1 H     4.72170706691E-01  2.42256171959E-01  1.50440357170E-01
 107   5  11    1 H     2.42256171959E-01  1.50440357170E-01  4.72170706691E-01
 108   5  12    1 H    -9.18158147889E-02  2.57743828041E-01 -2.70085465267E-01
 109   5  13    1 H     9.18158147889E-02 -1.50440357170E-01 -1.78269650478E-01
 110   5  14    1 H    -4.72170706691E-01  2.70085465267E-01 -3.21730349522E-01
 111   5  15    1 H    -2.78292933085E-02 -3.49559642830E-01 -2.57743828041E-01
 112   5  16    1 H     4.08184185211E-01  2.29914534733E-01 -2.42256171959E-01
 113   5  17    1 H    -1.50440357170E-01 -1.78269650478E-01  9.18158147889E-02
 114   5  18    1 H    -1.78269650478E-01  9.18158147889E-02 -1.50440357170E-01
 115   5  19    1 H     2.29914534733E-01 -2.42256171959E-01  4.08184185211E-01
 116   5  20    1 H    -3.21730349522E-01 -4.72170706691E-01  2.70085465267E-01
 117   5  21    1 H     2.70085465267E-01 -3.21730349522E-01 -4.72170706691E-01
 118   5  22    1 H    -2.57743828041E-01 -2.78292933085E-02 -3.49559642830E-01
 119   5  23    1 H    -3.49559642830E-01 -2.57743828041E-01 -2.78292933085E-02
 120   5  24    1 H    -2.42256171959E-01  4.08184185211E-01  2.29914534733E-01

 121   6   1    7 N     3.21018277789E-01  4.84138399011E-01  3.15425358168E-01
 122   6   2    7 N    -3.31286959157E-01  5.59291962180E-03  1.84574641832E-01
 123   6   3    7 N     1.78981722211E-01  4.94407080378E-01  1.63120121221E-01
 124   6   4    7 N    -1.68713040843E-01  1.58616009892E-02  3.36879878779E-01
 125   6   5    7 N     3.15425358168E-01  3.21018277789E-01  4.84138399011E-01
 126   6   6    7 N     4.84138399011E-01  3.15425358168E-01  3.21018277789E-01
 127   6   7    7 N     3.36879878779E-01 -1.68713040843E-01  1.58616009892E-02
 128   6   8    7 N     5.59291962180E-03  1.84574641832E-01 -3.31286959157E-01
 129   6   9    7 N     1.84574641832E-01 -3.31286959157E-01  5.59291962180E-03
 130   6  10    7 N     4.94407080378E-01  1.63120121221E-01  1.78981722211E-01
 131   6  11    7 N     1.63120121221E-01  1.78981722211E-01  4.94407080378E-01
 132   6  12    7 N     1.58616009892E-02  3.36879878779E-01 -1.68713040843E-01
 133   6  13    7 N    -1.58616009892E-02 -1.78981722211E-01 -1.84574641832E-01
 134   6  14    7 N    -4.94407080378E-01  1.68713040843E-01 -3.15425358168E-01
 135   6  15    7 N    -5.59291962180E-03 -3.21018277789E-01 -3.36879878779E-01
 136   6  16    7 N    -4.84138399011E-01  3.31286959157E-01 -1.63120121221E-01
 137   6  17    7 N    -1.78981722211E-01 -1.84574641832E-01 -1.58616009892E-02
 138   6  18    7 N    -1.84574641832E-01 -1.58616009892E-02 -1.78981722211E-01
 139   6  19    7 N     3.31286959157E-01 -1.63120121221E-01 -4.84138399011E-01
 140   6  20    7 N    -3.15425358168E-01 -4.94407080378E-01  1.68713040843E-01
 141   6  21    7 N     1.68713040843E-01 -3.15425358168E-01 -4.94407080378E-01
 142   6  22    7 N    -3.36879878779E-01 -5.59291962180E-03 -3.21018277789E-01
 143   6  23    7 N    -3.21018277789E-01 -3.36879878779E-01 -5.59291962180E-03
 144   6  24    7 N    -1.63120121221E-01 -4.84138399011E-01  3.31286959157E-01

 145   7   1    6 C     2.83705280147E-01  4.31832871690E-01  3.36219134506E-01
 146   7   2    6 C    -4.04386262816E-01 -5.25138543588E-02  1.63780865494E-01
 147   7   3    6 C     2.16294719853E-01 -4.47486145641E-01  1.48127591543E-01
 148   7   4    6 C    -9.56137371840E-02  6.81671283102E-02  3.51872408457E-01
 149   7   5    6 C     3.36219134506E-01  2.83705280147E-01  4.31832871690E-01
 150   7   6    6 C     4.31832871690E-01  3.36219134506E-01  2.83705280147E-01
 151   7   7    6 C     3.51872408457E-01 -9.56137371840E-02  6.81671283102E-02
 152   7   8    6 C    -5.25138543588E-02  1.63780865494E-01 -4.04386262816E-01
 153   7   9    6 C     1.63780865494E-01 -4.04386262816E-01 -5.25138543588E-02
 154   7  10    6 C    -4.47486145641E-01  1.48127591543E-01  2.16294719853E-01
 155   7  11    6 C     1.48127591543E-01  2.16294719853E-01 -4.47486145641E-01
 156   7  12    6 C     6.81671283102E-02  3.51872408457E-01 -9.56137371840E-02
 157   7  13    6 C    -6.81671283102E-02 -2.16294719853E-01 -1.63780865494E-01
 158   7  14    6 C     4.47486145641E-01  9.56137371840E-02 -3.36219134506E-01
 159   7  15    6 C     5.25138543588E-02 -2.83705280147E-01 -3.51872408457E-01
 160   7  16    6 C    -4.31832871690E-01  4.04386262816E-01 -1.48127591543E-01
 161   7  17    6 C    -2.16294719853E-01 -1.63780865494E-01 -6.81671283102E-02
 162   7  18    6 C    -1.63780865494E-01 -6.81671283102E-02 -2.16294719853E-01
 163   7  19    6 C     4.04386262816E-01 -1.48127591543E-01 -4.31832871690E-01
 164   7  20    6 C    -3.36219134506E-01  4.47486145641E-01  9.56137371840E-02
 165   7  21    6 C     9.56137371840E-02 -3.36219134506E-01  4.47486145641E-01
 166   7  22    6 C    -3.51872408457E-01  5.25138543588E-02 -2.83705280147E-01
 167   7  23    6 C    -2.83705280147E-01 -3.51872408457E-01  5.25138543588E-02
 168   7  24    6 C    -1.48127591543E-01 -4.31832871690E-01  4.04386262816E-01

 169   8   1    6 C     2.81742619837E-01  3.59398208224E-01  3.09111013850E-01
 170   8   2    6 C    -4.49712805625E-01 -2.73683940132E-02  1.90888986150E-01
 171   8   3    6 C     2.18257380163E-01 -4.72631605987E-01  7.76555883877E-02
 172   8   4    6 C    -5.02871943745E-02  1.40601791776E-01  4.22344411612E-01
 173   8   5    6 C     3.09111013850E-01  2.81742619837E-01  3.59398208224E-01
 174   8   6    6 C     3.59398208224E-01  3.09111013850E-01  2.81742619837E-01
 175   8   7    6 C     4.22344411612E-01 -5.02871943745E-02  1.40601791776E-01
 176   8   8    6 C    -2.73683940132E-02  1.90888986150E-01 -4.49712805625E-01
 177   8   9    6 C     1.90888986150E-01 -4.49712805625E-01 -2.73683940132E-02
 178   8  10    6 C    -4.72631605987E-01  7.76555883877E-02  2.18257380163E-01
 179   8  11    6 C     7.76555883877E-02  2.18257380163E-01 -4.72631605987E-01
 180   8  12    6 C     1.40601791776E-01  4.22344411612E-01 -5.02871943745E-02
 181   8  13    6 C    -1.40601791776E-01 -2.18257380163E-01 -1.90888986150E-01
 182   8  14    6 C     4.72631605987E-01  5.02871943745E-02 -3.09111013850E-01
 183   8  15    6 C     2.73683940132E-02 -2.81742619837E-01 -4.22344411612E-01
 184   8  16    6 C    -3.59398208224E-01  4.49712805625E-01 -7.76555883877E-02
 185   8  17    6 C    -2.18257380163E-01 -1.90888986150E-01 -1.40601791776E-01
 186   8  18    6 C    -1.90888986150E-01 -1.40601791776E-01 -2.18257380163E-01
 187   8  19    6 C     4.49712805625E-01 -7.76555883877E-02 -3.59398208224E-01
 188   8  20    6 C    -3.09111013850E-01  4.72631605987E-01  5.02871943745E-02
 189   8  21    6 C     5.02871943745E-02 -3.09111013850E-01  4.72631605987E-01
 190   8  22    6 C    -4.22344411612E-01  2.73683940132E-02 -2.81742619837E-01
 191   8  23    6 C    -2.81742619837E-01 -4.22344411612E-01  2.73683940132E-02
 192   8  24    6 C    -7.76555883877E-02 -3.59398208224E-01  4.49712805625E-01

 193   9   1    7 N     2.62550161859E-01  4.53223825365E-01  3.93531308735E-01
 194   9   2    7 N    -4.40307483370E-01 -1.30981146876E-01  1.06468691265E-01
 195   9   3    7 N     2.37449838141E-01 -3.69018853124E-01  1.90673663506E-01
 196   9   4    7 N    -5.96925166298E-02  4.67761746352E-02  3.09326336494E-01
 197   9   5    7 N     3.93531308735E-01  2.62550161859E-01  4.53223825365E-01
 198   9   6    7 N     4.53223825365E-01  3.93531308735E-01  2.62550161859E-01
 199   9   7    7 N     3.09326336494E-01 -5.96925166298E-02  4.67761746352E-02
 200   9   8    7 N    -1.30981146876E-01  1.06468691265E-01 -4.40307483370E-01
 201   9   9    7 N     1.06468691265E-01 -4.40307483370E-01 -1.30981146876E-01
 202   9  10    7 N    -3.69018853124E-01  1.90673663506E-01  2.37449838141E-01
 203   9  11    7 N     1.90673663506E-01  2.37449838141E-01 -3.69018853124E-01
 204   9  12    7 N     4.67761746352E-02  3.09326336494E-01 -5.96925166298E-02
 205   9  13    7 N    -4.67761746352E-02 -2.37449838141E-01 -1.06468691265E-01
 206   9  14    7 N     3.69018853124E-01  5.96925166298E-02 -3.93531308735E-01
 207   9  15    7 N     1.30981146876E-01 -2.62550161859E-01 -3.09326336494E-01
 208   9  16    7 N    -4.53223825365E-01  4.40307483370E-01 -1.90673663506E-01
 209   9  17    7 N    -2.37449838141E-01 -1.06468691265E-01 -4.67761746352E-02
 210   9  18    7 N    -1.06468691265E-01 -4.67761746352E-02 -2.37449838141E-01
 211   9  19    7 N     4.40307483370E-01 -1.90673663506E-01 -4.53223825365E-01
 212   9  20    7 N    -3.93531308735E-01  3.69018853124E-01  5.96925166298E-02
 213   9  21    7 N     5.96925166298E-02 -3.93531308735E-01  3.69018853124E-01
 214   9  22    7 N    -3.09326336494E-01  1.30981146876E-01 -2.62550161859E-01
 215   9  23    7 N    -2.62550161859E-01 -3.09326336494E-01  1.30981146876E-01
 216   9  24    7 N    -1.90673663506E-01 -4.53223825365E-01  4.40307483370E-01

 217  10   1    7 N     3.18987378022E-01  3.47419976426E-01  2.66838845385E-01
 218  10   2    7 N    -4.19418868959E-01  5.21485326368E-02  2.33161154615E-01
 219  10   3    7 N     1.81012621978E-01  4.47851467363E-01  2.84325984047E-02
 220  10   4    7 N    -8.05811310415E-02  1.52580023574E-01  4.71567401595E-01
 221  10   5    7 N     2.66838845385E-01  3.18987378022E-01  3.47419976426E-01
 222  10   6    7 N     3.47419976426E-01  2.66838845385E-01  3.18987378022E-01
 223  10   7    7 N     4.71567401595E-01 -8.05811310415E-02  1.52580023574E-01
 224  10   8    7 N     5.21485326368E-02  2.33161154615E-01 -4.19418868959E-01
 225  10   9    7 N     2.33161154615E-01 -4.19418868959E-01  5.21485326368E-02
 226  10  10    7 N     4.47851467363E-01  2.84325984047E-02  1.81012621978E-01
 227  10  11    7 N     2.84325984047E-02  1.81012621978E-01  4.47851467363E-01
 228  10  12    7 N     1.52580023574E-01  4.71567401595E-01 -8.05811310415E-02
 229  10  13    7 N    -1.52580023574E-01 -1.81012621978E-01 -2.33161154615E-01
 230  10  14    7 N    -4.47851467363E-01  8.05811310415E-02 -2.66838845385E-01
 231  10  15    7 N    -5.21485326368E-02 -3.18987378022E-01 -4.71567401595E-01
 232  10  16    7 N    -3.47419976426E-01  4.19418868959E-01 -2.84325984047E-02
 233  10  17    7 N    -1.81012621978E-01 -2.33161154615E-01 -1.52580023574E-01
 234  10  18    7 N    -2.33161154615E-01 -1.52580023574E-01 -1.81012621978E-01
 235  10  19    7 N     4.19418868959E-01 -2.84325984047E-02 -3.47419976426E-01
 236  10  20    7 N    -2.66838845385E-01 -4.47851467363E-01  8.05811310415E-02
 237  10  21    7 N     8.05811310415E-02 -2.66838845385E-01 -4.47851467363E-01
 238  10  22    7 N    -4.71567401595E-01 -5.21485326368E-02 -3.18987378022E-01
 239  10  23    7 N    -3.18987378022E-01 -4.71567401595E-01 -5.21485326368E-02
 240  10  24    7 N    -2.84325984047E-02 -3.47419976426E-01  4.19418868959E-01

 241  11   1  278 PT   -1.14332114362E-01 -2.27148944513E-01 -5.35902142162E-02
 242  11   2  278 PT    3.26441269703E-01 -6.07419001460E-02 -4.46409785784E-01
 243  11   3  278 PT   -3.85667885638E-01 -4.39258099854E-01 -1.12816830151E-01
 244  11   4  278 PT    1.73558730297E-01 -2.72851055487E-01 -3.87183169849E-01
 245  11   5  278 PT   -5.35902142162E-02 -1.14332114362E-01 -2.27148944513E-01
 246  11   6  278 PT   -2.27148944513E-01 -5.35902142162E-02 -1.14332114362E-01
 247  11   7  278 PT   -3.87183169849E-01  1.73558730297E-01 -2.72851055487E-01
 248  11   8  278 PT   -6.07419001460E-02 -4.46409785784E-01  3.26441269703E-01
 249  11   9  278 PT   -4.46409785784E-01  3.26441269703E-01 -6.07419001460E-02
 250  11  10  278 PT   -4.39258099854E-01 -1.12816830151E-01 -3.85667885638E-01
 251  11  11  278 PT   -1.12816830151E-01 -3.85667885638E-01 -4.39258099854E-01
 252  11  12  278 PT   -2.72851055487E-01 -3.87183169849E-01  1.73558730297E-01
 253  11  13  278 PT    2.72851055487E-01  3.85667885638E-01  4.46409785784E-01
 254  11  14  278 PT    4.39258099854E-01 -1.73558730297E-01  5.35902142162E-02
 255  11  15  278 PT    6.07419001460E-02  1.14332114362E-01  3.87183169849E-01
 256  11  16  278 PT    2.27148944513E-01 -3.26441269703E-01  1.12816830151E-01
 257  11  17  278 PT    3.85667885638E-01  4.46409785784E-01  2.72851055487E-01
 258  11  18  278 PT    4.46409785784E-01  2.72851055487E-01  3.85667885638E-01
 259  11  19  278 PT   -3.26441269703E-01  1.12816830151E-01  2.27148944513E-01
 260  11  20  278 PT    5.35902142162E-02  4.39258099854E-01 -1.73558730297E-01
 261  11  21  278 PT   -1.73558730297E-01  5.35902142162E-02  4.39258099854E-01
 262  11  22  278 PT    3.87183169849E-01  6.07419001460E-02  1.14332114362E-01
 263  11  23  278 PT    1.14332114362E-01  3.87183169849E-01  6.07419001460E-02
 264  11  24  278 PT    1.12816830151E-01  2.27148944513E-01 -3.26441269703E-01

 265  12   1   17 CL   -3.53179981421E-02 -2.15142668223E-01  6.39549966266E-02
 266  12   2   17 CL    2.20902335150E-01 -9.92729947687E-02  4.36045003373E-01
 267  12   3   17 CL   -4.64682001858E-01 -4.00727005231E-01 -1.79824670081E-01
 268  12   4   17 CL    2.79097664850E-01 -2.84857331777E-01 -3.20175329919E-01
 269  12   5   17 CL    6.39549966266E-02 -3.53179981421E-02 -2.15142668223E-01
 270  12   6   17 CL   -2.15142668223E-01  6.39549966266E-02 -3.53179981421E-02
 271  12   7   17 CL   -3.20175329919E-01  2.79097664850E-01 -2.84857331777E-01
 272  12   8   17 CL   -9.92729947687E-02  4.36045003373E-01  2.20902335150E-01
 273  12   9   17 CL    4.36045003373E-01  2.20902335150E-01 -9.92729947687E-02
 274  12  10   17 CL   -4.00727005231E-01 -1.79824670081E-01 -4.64682001858E-01
 275  12  11   17 CL   -1.79824670081E-01 -4.64682001858E-01 -4.00727005231E-01
 276  12  12   17 CL   -2.84857331777E-01 -3.20175329919E-01  2.79097664850E-01
 277  12  13   17 CL    2.84857331777E-01  4.64682001858E-01 -4.36045003373E-01
 278  12  14   17 CL    4.00727005231E-01 -2.79097664850E-01 -6.39549966266E-02
 279  12  15   17 CL    9.92729947687E-02  3.53179981421E-02  3.20175329919E-01
 280  12  16   17 CL    2.15142668223E-01 -2.20902335150E-01  1.79824670081E-01
 281  12  17   17 CL    4.64682001858E-01 -4.36045003373E-01  2.84857331777E-01
 282  12  18   17 CL   -4.36045003373E-01  2.84857331777E-01  4.64682001858E-01
 283  12  19   17 CL   -2.20902335150E-01  1.79824670081E-01  2.15142668223E-01
 284  12  20   17 CL   -6.39549966266E-02  4.00727005231E-01 -2.79097664850E-01
 285  12  21   17 CL   -2.79097664850E-01 -6.39549966266E-02  4.00727005231E-01
 286  12  22   17 CL    3.20175329919E-01  9.92729947687E-02  3.53179981421E-02
 287  12  23   17 CL    3.53179981421E-02  3.20175329919E-01  9.92729947687E-02
 288  12  24   17 CL    1.79824670081E-01  2.15142668223E-01 -2.20902335150E-01

 289  13   1    6 C     2.50000000000E-01 -3.75000000000E-01  3.75000000000E-01
 290  13   2    6 C    -2.50000000000E-01 -1.25000000000E-01  1.25000000000E-01
 291  13   3    6 C     3.75000000000E-01  2.50000000000E-01 -3.75000000000E-01
 292  13   4    6 C    -3.75000000000E-01  3.75000000000E-01  2.50000000000E-01
 293  13   5    6 C     1.25000000000E-01 -2.50000000000E-01 -1.25000000000E-01
 294  13   6    6 C    -1.25000000000E-01  1.25000000000E-01 -2.50000000000E-01

 NUMBER OF SYMMETRY OPERATORS         :   24
 *******************************************************************************
 * GEOMETRY EDITING - INPUT COORDINATES ARE GIVEN IN ANGSTROM         
 *******************************************************************************

 GEOMETRY NOW FULLY CONSISTENT WITH THE GROUP

 GCALCO - MAX INDICES DIRECT LATTICE VECTOR    14    14    14
 NO.OF VECTORS CREATED 6999 STARS  122 RMAX   424.12780 BOHR

 GEOMETRY FOR WAVE FUNCTION - DIMENSIONALITY OF THE SYSTEM    3
 (NON PERIODIC DIRECTION: LATTICE PARAMETER FORMALLY SET TO 500)
 *******************************************************************************
 LATTICE PARAMETERS (ANGSTROMS AND DEGREES) - BOHR = 0.5291772083 ANGSTROM
 PRIMITIVE CELL - CENTRING CODE 6/0 VOLUME=  6732.534647 - DENSITY  1.995 g/cm^3
         A              B              C           ALPHA      BETA       GAMMA 
    20.60314391    20.60314391    20.60314391   109.471221 109.471221 109.471221
 *******************************************************************************
 ATOMS IN THE ASYMMETRIC UNIT   13 - ATOMS IN THE UNIT CELL:  294
     ATOM                 X/A                 Y/B                 Z/C    
 *******************************************************************************
      1 T   6 C     2.586195621188E-01 -4.801762956197E-01  4.136051606471E-01
      2 F   6 C    -3.937814562668E-01 -1.549855985283E-01  8.639483935290E-02
      3 F   6 C     2.413804378812E-01 -3.450144014717E-01  2.612041422615E-01
      4 F   6 C    -1.062185437332E-01 -1.982370438030E-02  2.387958577385E-01
      5 F   6 C     4.136051606471E-01  2.586195621188E-01 -4.801762956197E-01
      6 F   6 C    -4.801762956197E-01  4.136051606471E-01  2.586195621188E-01
      7 F   6 C     2.387958577385E-01 -1.062185437332E-01 -1.982370438030E-02
      8 F   6 C    -1.549855985283E-01  8.639483935290E-02 -3.937814562668E-01
      9 F   6 C     8.639483935290E-02 -3.937814562668E-01 -1.549855985283E-01
     10 F   6 C    -3.450144014717E-01  2.612041422615E-01  2.413804378812E-01
     11 F   6 C     2.612041422615E-01  2.413804378812E-01 -3.450144014717E-01
     12 F   6 C    -1.982370438030E-02  2.387958577385E-01 -1.062185437332E-01
     13 F   6 C     1.982370438030E-02 -2.413804378812E-01 -8.639483935290E-02
     14 F   6 C     3.450144014717E-01  1.062185437332E-01 -4.136051606471E-01
     15 F   6 C     1.549855985283E-01 -2.586195621188E-01 -2.387958577385E-01
     16 F   6 C     4.801762956197E-01  3.937814562668E-01 -2.612041422615E-01
     17 F   6 C    -2.413804378812E-01 -8.639483935290E-02  1.982370438030E-02
     18 F   6 C    -8.639483935290E-02  1.982370438030E-02 -2.413804378812E-01
     19 F   6 C     3.937814562668E-01 -2.612041422615E-01  4.801762956197E-01
     20 F   6 C    -4.136051606471E-01  3.450144014717E-01  1.062185437332E-01
     21 F   6 C     1.062185437332E-01 -4.136051606471E-01  3.450144014717E-01
     22 F   6 C    -2.387958577385E-01  1.549855985283E-01 -2.586195621188E-01
     23 F   6 C    -2.586195621188E-01 -2.387958577385E-01  1.549855985283E-01
     24 F   6 C    -2.612041422615E-01  4.801762956197E-01  3.937814562668E-01
     25 T   1 H     2.381361661384E-01 -4.665228145773E-01  4.562302903117E-01
     26 F   1 H    -4.227531048890E-01 -2.180941241733E-01  4.376970968828E-02
     27 F   1 H     2.618638338616E-01 -2.819058758267E-01  2.953410192843E-01
     28 F   1 H    -7.724689511098E-02 -3.347718542270E-02  2.046589807157E-01
     29 F   1 H     4.562302903117E-01  2.381361661384E-01 -4.665228145773E-01
     30 F   1 H    -4.665228145773E-01  4.562302903117E-01  2.381361661384E-01
     31 F   1 H     2.046589807157E-01 -7.724689511098E-02 -3.347718542270E-02
     32 F   1 H    -2.180941241733E-01  4.376970968828E-02 -4.227531048890E-01
     33 F   1 H     4.376970968828E-02 -4.227531048890E-01 -2.180941241733E-01
     34 F   1 H    -2.819058758267E-01  2.953410192843E-01  2.618638338616E-01
     35 F   1 H     2.953410192843E-01  2.618638338616E-01 -2.819058758267E-01
     36 F   1 H    -3.347718542270E-02  2.046589807157E-01 -7.724689511098E-02
     37 F   1 H     3.347718542270E-02 -2.618638338616E-01 -4.376970968828E-02
     38 F   1 H     2.819058758267E-01  7.724689511098E-02 -4.562302903117E-01
     39 F   1 H     2.180941241733E-01 -2.381361661384E-01 -2.046589807157E-01
     40 F   1 H     4.665228145773E-01  4.227531048890E-01 -2.953410192843E-01
     41 F   1 H    -2.618638338616E-01 -4.376970968828E-02  3.347718542270E-02
     42 F   1 H    -4.376970968828E-02  3.347718542270E-02 -2.618638338616E-01
     43 F   1 H     4.227531048890E-01 -2.953410192843E-01  4.665228145773E-01
     44 F   1 H    -4.562302903117E-01  2.819058758267E-01  7.724689511098E-02
     45 F   1 H     7.724689511098E-02 -4.562302903117E-01  2.819058758267E-01
     46 F   1 H    -2.046589807157E-01  2.180941241733E-01 -2.381361661384E-01
     47 F   1 H    -2.381361661384E-01 -2.046589807157E-01  2.180941241733E-01
     48 F   1 H    -2.953410192843E-01  4.665228145773E-01  4.227531048890E-01
     49 T   6 C     2.813985183477E-01 -4.311185562327E-01  3.824958627092E-01
     50 F   6 C    -3.136144189419E-01 -1.010973443615E-01  1.175041372908E-01
     51 F   6 C     2.186014816523E-01 -3.989026556385E-01  2.874829254196E-01
     52 F   6 C    -1.863855810581E-01 -6.888144376730E-02  2.125170745804E-01
     53 F   6 C     3.824958627092E-01  2.813985183477E-01 -4.311185562327E-01
     54 F   6 C    -4.311185562327E-01  3.824958627092E-01  2.813985183477E-01
     55 F   6 C     2.125170745804E-01 -1.863855810581E-01 -6.888144376730E-02
     56 F   6 C    -1.010973443615E-01  1.175041372908E-01 -3.136144189419E-01
     57 F   6 C     1.175041372908E-01 -3.136144189419E-01 -1.010973443615E-01
     58 F   6 C    -3.989026556385E-01  2.874829254196E-01  2.186014816523E-01
     59 F   6 C     2.874829254196E-01  2.186014816523E-01 -3.989026556385E-01
     60 F   6 C    -6.888144376730E-02  2.125170745804E-01 -1.863855810581E-01
     61 F   6 C     6.888144376730E-02 -2.186014816523E-01 -1.175041372908E-01
     62 F   6 C     3.989026556385E-01  1.863855810581E-01 -3.824958627092E-01
     63 F   6 C     1.010973443615E-01 -2.813985183477E-01 -2.125170745804E-01
     64 F   6 C     4.311185562327E-01  3.136144189419E-01 -2.874829254196E-01
     65 F   6 C    -2.186014816523E-01 -1.175041372908E-01  6.888144376730E-02
     66 F   6 C    -1.175041372908E-01  6.888144376730E-02 -2.186014816523E-01
     67 F   6 C     3.136144189419E-01 -2.874829254196E-01  4.311185562327E-01
     68 F   6 C    -3.824958627092E-01  3.989026556385E-01  1.863855810581E-01
     69 F   6 C     1.863855810581E-01 -3.824958627092E-01  3.989026556385E-01
     70 F   6 C    -2.125170745804E-01  1.010973443615E-01 -2.813985183477E-01
     71 F   6 C    -2.813985183477E-01 -2.125170745804E-01  1.010973443615E-01
     72 F   6 C    -2.874829254196E-01  4.311185562327E-01  3.136144189419E-01
     73 T   6 C     3.202025998133E-01 -4.481571474489E-01  3.394859231710E-01
     74 F   6 C    -2.876430706199E-01 -1.928332335770E-02  1.605140768290E-01
     75 F   6 C     1.797974001867E-01 -4.807166766423E-01  2.316402527378E-01
     76 F   6 C    -2.123569293801E-01 -5.184285255110E-02  2.683597472622E-01
     77 F   6 C     3.394859231710E-01  3.202025998133E-01 -4.481571474489E-01
     78 F   6 C    -4.481571474489E-01  3.394859231710E-01  3.202025998133E-01
     79 F   6 C     2.683597472622E-01 -2.123569293801E-01 -5.184285255110E-02
     80 F   6 C    -1.928332335770E-02  1.605140768290E-01 -2.876430706199E-01
     81 F   6 C     1.605140768290E-01 -2.876430706199E-01 -1.928332335770E-02
     82 F   6 C    -4.807166766423E-01  2.316402527378E-01  1.797974001867E-01
     83 F   6 C     2.316402527378E-01  1.797974001867E-01 -4.807166766423E-01
     84 F   6 C    -5.184285255110E-02  2.683597472622E-01 -2.123569293801E-01
     85 F   6 C     5.184285255110E-02 -1.797974001867E-01 -1.605140768290E-01
     86 F   6 C     4.807166766423E-01  2.123569293801E-01 -3.394859231710E-01
     87 F   6 C     1.928332335770E-02 -3.202025998133E-01 -2.683597472622E-01
     88 F   6 C     4.481571474489E-01  2.876430706199E-01 -2.316402527378E-01
     89 F   6 C    -1.797974001867E-01 -1.605140768290E-01  5.184285255110E-02
     90 F   6 C    -1.605140768290E-01  5.184285255110E-02 -1.797974001867E-01
     91 F   6 C     2.876430706199E-01 -2.316402527378E-01  4.481571474489E-01
     92 F   6 C    -3.394859231710E-01  4.807166766423E-01  2.123569293801E-01
     93 F   6 C     2.123569293801E-01 -3.394859231710E-01  4.807166766423E-01
     94 F   6 C    -2.683597472622E-01  1.928332335770E-02 -3.202025998133E-01
     95 F   6 C    -3.202025998133E-01 -2.683597472622E-01  1.928332335770E-02
     96 F   6 C    -2.316402527378E-01  4.481571474489E-01  2.876430706199E-01
     97 T   1 H     3.495596428304E-01 -4.081841852111E-01  3.217303495219E-01
     98 F   1 H    -2.299145347330E-01  2.782929330850E-02  1.782696504781E-01
     99 F   1 H     1.504403571696E-01  4.721707066915E-01  2.422561719585E-01
    100 F   1 H    -2.700854652670E-01 -9.181581478890E-02  2.577438280415E-01
    101 F   1 H     3.217303495219E-01  3.495596428304E-01 -4.081841852111E-01
    102 F   1 H    -4.081841852111E-01  3.217303495219E-01  3.495596428304E-01
    103 F   1 H     2.577438280415E-01 -2.700854652670E-01 -9.181581478890E-02
    104 F   1 H     2.782929330850E-02  1.782696504781E-01 -2.299145347330E-01
    105 F   1 H     1.782696504781E-01 -2.299145347330E-01  2.782929330850E-02
    106 F   1 H     4.721707066915E-01  2.422561719585E-01  1.504403571696E-01
    107 F   1 H     2.422561719585E-01  1.504403571696E-01  4.721707066915E-01
    108 F   1 H    -9.181581478890E-02  2.577438280415E-01 -2.700854652670E-01
    109 F   1 H     9.181581478890E-02 -1.504403571696E-01 -1.782696504781E-01
    110 F   1 H    -4.721707066915E-01  2.700854652670E-01 -3.217303495219E-01
    111 F   1 H    -2.782929330850E-02 -3.495596428304E-01 -2.577438280415E-01
    112 F   1 H     4.081841852111E-01  2.299145347330E-01 -2.422561719585E-01
    113 F   1 H    -1.504403571696E-01 -1.782696504781E-01  9.181581478890E-02
    114 F   1 H    -1.782696504781E-01  9.181581478890E-02 -1.504403571696E-01
    115 F   1 H     2.299145347330E-01 -2.422561719585E-01  4.081841852111E-01
    116 F   1 H    -3.217303495219E-01 -4.721707066915E-01  2.700854652670E-01
    117 F   1 H     2.700854652670E-01 -3.217303495219E-01 -4.721707066915E-01
    118 F   1 H    -2.577438280415E-01 -2.782929330850E-02 -3.495596428304E-01
    119 F   1 H    -3.495596428304E-01 -2.577438280415E-01 -2.782929330850E-02
    120 F   1 H    -2.422561719585E-01  4.081841852111E-01  2.299145347330E-01
    121 T   7 N     3.210182777895E-01  4.841383990108E-01  3.154253581677E-01
    122 F   7 N    -3.312869591569E-01  5.592919621800E-03  1.845746418323E-01
    123 F   7 N     1.789817222105E-01  4.944070803782E-01  1.631201212213E-01
    124 F   7 N    -1.687130408431E-01  1.586160098920E-02  3.368798787787E-01
    125 F   7 N     3.154253581677E-01  3.210182777895E-01  4.841383990108E-01
    126 F   7 N     4.841383990108E-01  3.154253581677E-01  3.210182777895E-01
    127 F   7 N     3.368798787787E-01 -1.687130408431E-01  1.586160098920E-02
    128 F   7 N     5.592919621800E-03  1.845746418323E-01 -3.312869591569E-01
    129 F   7 N     1.845746418323E-01 -3.312869591569E-01  5.592919621800E-03
    130 F   7 N     4.944070803782E-01  1.631201212213E-01  1.789817222105E-01
    131 F   7 N     1.631201212213E-01  1.789817222105E-01  4.944070803782E-01
    132 F   7 N     1.586160098920E-02  3.368798787787E-01 -1.687130408431E-01
    133 F   7 N    -1.586160098920E-02 -1.789817222105E-01 -1.845746418323E-01
    134 F   7 N    -4.944070803782E-01  1.687130408431E-01 -3.154253581677E-01
    135 F   7 N    -5.592919621800E-03 -3.210182777895E-01 -3.368798787787E-01
    136 F   7 N    -4.841383990108E-01  3.312869591569E-01 -1.631201212213E-01
    137 F   7 N    -1.789817222105E-01 -1.845746418323E-01 -1.586160098920E-02
    138 F   7 N    -1.845746418323E-01 -1.586160098920E-02 -1.789817222105E-01
    139 F   7 N     3.312869591569E-01 -1.631201212213E-01 -4.841383990108E-01
    140 F   7 N    -3.154253581677E-01 -4.944070803782E-01  1.687130408431E-01
    141 F   7 N     1.687130408431E-01 -3.154253581677E-01 -4.944070803782E-01
    142 F   7 N    -3.368798787787E-01 -5.592919621800E-03 -3.210182777895E-01
    143 F   7 N    -3.210182777895E-01 -3.368798787787E-01 -5.592919621800E-03
    144 F   7 N    -1.631201212213E-01 -4.841383990108E-01  3.312869591569E-01
    145 T   6 C     2.837052801470E-01  4.318328716898E-01  3.362191345058E-01
    146 F   6 C    -4.043862628160E-01 -5.251385435880E-02  1.637808654942E-01
    147 F   6 C     2.162947198530E-01 -4.474861456412E-01  1.481275915428E-01
    148 F   6 C    -9.561373718401E-02  6.816712831020E-02  3.518724084572E-01
    149 F   6 C     3.362191345058E-01  2.837052801470E-01  4.318328716898E-01
    150 F   6 C     4.318328716898E-01  3.362191345058E-01  2.837052801470E-01
    151 F   6 C     3.518724084572E-01 -9.561373718401E-02  6.816712831020E-02
    152 F   6 C    -5.251385435880E-02  1.637808654942E-01 -4.043862628160E-01
    153 F   6 C     1.637808654942E-01 -4.043862628160E-01 -5.251385435880E-02
    154 F   6 C    -4.474861456412E-01  1.481275915428E-01  2.162947198530E-01
    155 F   6 C     1.481275915428E-01  2.162947198530E-01 -4.474861456412E-01
    156 F   6 C     6.816712831020E-02  3.518724084572E-01 -9.561373718401E-02
    157 F   6 C    -6.816712831020E-02 -2.162947198530E-01 -1.637808654942E-01
    158 F   6 C     4.474861456412E-01  9.561373718401E-02 -3.362191345058E-01
    159 F   6 C     5.251385435880E-02 -2.837052801470E-01 -3.518724084572E-01
    160 F   6 C    -4.318328716898E-01  4.043862628160E-01 -1.481275915428E-01
    161 F   6 C    -2.162947198530E-01 -1.637808654942E-01 -6.816712831020E-02
    162 F   6 C    -1.637808654942E-01 -6.816712831020E-02 -2.162947198530E-01
    163 F   6 C     4.043862628160E-01 -1.481275915428E-01 -4.318328716898E-01
    164 F   6 C    -3.362191345058E-01  4.474861456412E-01  9.561373718401E-02
    165 F   6 C     9.561373718401E-02 -3.362191345058E-01  4.474861456412E-01
    166 F   6 C    -3.518724084572E-01  5.251385435880E-02 -2.837052801470E-01
    167 F   6 C    -2.837052801470E-01 -3.518724084572E-01  5.251385435880E-02
    168 F   6 C    -1.481275915428E-01 -4.318328716898E-01  4.043862628160E-01
    169 T   6 C     2.817426198367E-01  3.593982082244E-01  3.091110138499E-01
    170 F   6 C    -4.497128056255E-01 -2.736839401320E-02  1.908889861501E-01
    171 F   6 C     2.182573801633E-01 -4.726316059868E-01  7.765558838770E-02
    172 F   6 C    -5.028719437450E-02  1.406017917756E-01  4.223444116123E-01
    173 F   6 C     3.091110138499E-01  2.817426198367E-01  3.593982082244E-01
    174 F   6 C     3.593982082244E-01  3.091110138499E-01  2.817426198367E-01
    175 F   6 C     4.223444116123E-01 -5.028719437450E-02  1.406017917756E-01
    176 F   6 C    -2.736839401320E-02  1.908889861501E-01 -4.497128056255E-01
    177 F   6 C     1.908889861501E-01 -4.497128056255E-01 -2.736839401320E-02
    178 F   6 C    -4.726316059868E-01  7.765558838770E-02  2.182573801633E-01
    179 F   6 C     7.765558838770E-02  2.182573801633E-01 -4.726316059868E-01
    180 F   6 C     1.406017917756E-01  4.223444116123E-01 -5.028719437450E-02
    181 F   6 C    -1.406017917756E-01 -2.182573801633E-01 -1.908889861501E-01
    182 F   6 C     4.726316059868E-01  5.028719437450E-02 -3.091110138499E-01
    183 F   6 C     2.736839401320E-02 -2.817426198367E-01 -4.223444116123E-01
    184 F   6 C    -3.593982082244E-01  4.497128056255E-01 -7.765558838770E-02
    185 F   6 C    -2.182573801633E-01 -1.908889861501E-01 -1.406017917756E-01
    186 F   6 C    -1.908889861501E-01 -1.406017917756E-01 -2.182573801633E-01
    187 F   6 C     4.497128056255E-01 -7.765558838770E-02 -3.593982082244E-01
    188 F   6 C    -3.091110138499E-01  4.726316059868E-01  5.028719437450E-02
    189 F   6 C     5.028719437450E-02 -3.091110138499E-01  4.726316059868E-01
    190 F   6 C    -4.223444116123E-01  2.736839401320E-02 -2.817426198367E-01
    191 F   6 C    -2.817426198367E-01 -4.223444116123E-01  2.736839401320E-02
    192 F   6 C    -7.765558838770E-02 -3.593982082244E-01  4.497128056255E-01
    193 T   7 N     2.625501618586E-01  4.532238253648E-01  3.935313087350E-01
    194 F   7 N    -4.403074833702E-01 -1.309811468764E-01  1.064686912650E-01
    195 F   7 N     2.374498381414E-01 -3.690188531236E-01  1.906736635062E-01
    196 F   7 N    -5.969251662980E-02  4.677617463520E-02  3.093263364938E-01
    197 F   7 N     3.935313087350E-01  2.625501618586E-01  4.532238253648E-01
    198 F   7 N     4.532238253648E-01  3.935313087350E-01  2.625501618586E-01
    199 F   7 N     3.093263364938E-01 -5.969251662980E-02  4.677617463520E-02
    200 F   7 N    -1.309811468764E-01  1.064686912650E-01 -4.403074833702E-01
    201 F   7 N     1.064686912650E-01 -4.403074833702E-01 -1.309811468764E-01
    202 F   7 N    -3.690188531236E-01  1.906736635062E-01  2.374498381414E-01
    203 F   7 N     1.906736635062E-01  2.374498381414E-01 -3.690188531236E-01
    204 F   7 N     4.677617463520E-02  3.093263364938E-01 -5.969251662980E-02
    205 F   7 N    -4.677617463520E-02 -2.374498381414E-01 -1.064686912650E-01
    206 F   7 N     3.690188531236E-01  5.969251662980E-02 -3.935313087350E-01
    207 F   7 N     1.309811468764E-01 -2.625501618586E-01 -3.093263364938E-01
    208 F   7 N    -4.532238253648E-01  4.403074833702E-01 -1.906736635062E-01
    209 F   7 N    -2.374498381414E-01 -1.064686912650E-01 -4.677617463520E-02
    210 F   7 N    -1.064686912650E-01 -4.677617463520E-02 -2.374498381414E-01
    211 F   7 N     4.403074833702E-01 -1.906736635062E-01 -4.532238253648E-01
    212 F   7 N    -3.935313087350E-01  3.690188531236E-01  5.969251662980E-02
    213 F   7 N     5.969251662980E-02 -3.935313087350E-01  3.690188531236E-01
    214 F   7 N    -3.093263364938E-01  1.309811468764E-01 -2.625501618586E-01
    215 F   7 N    -2.625501618586E-01 -3.093263364938E-01  1.309811468764E-01
    216 F   7 N    -1.906736635062E-01 -4.532238253648E-01  4.403074833702E-01
    217 T   7 N     3.189873780217E-01  3.474199764264E-01  2.668388453849E-01
    218 F   7 N    -4.194188689585E-01  5.214853263680E-02  2.331611546151E-01
    219 F   7 N     1.810126219783E-01  4.478514673632E-01  2.843259840470E-02
    220 F   7 N    -8.058113104150E-02  1.525800235736E-01  4.715674015953E-01
    221 F   7 N     2.668388453849E-01  3.189873780217E-01  3.474199764264E-01
    222 F   7 N     3.474199764264E-01  2.668388453849E-01  3.189873780217E-01
    223 F   7 N     4.715674015953E-01 -8.058113104150E-02  1.525800235736E-01
    224 F   7 N     5.214853263680E-02  2.331611546151E-01 -4.194188689585E-01
    225 F   7 N     2.331611546151E-01 -4.194188689585E-01  5.214853263680E-02
    226 F   7 N     4.478514673632E-01  2.843259840470E-02  1.810126219783E-01
    227 F   7 N     2.843259840470E-02  1.810126219783E-01  4.478514673632E-01
    228 F   7 N     1.525800235736E-01  4.715674015953E-01 -8.058113104150E-02
    229 F   7 N    -1.525800235736E-01 -1.810126219783E-01 -2.331611546151E-01
    230 F   7 N    -4.478514673632E-01  8.058113104150E-02 -2.668388453849E-01
    231 F   7 N    -5.214853263680E-02 -3.189873780217E-01 -4.715674015953E-01
    232 F   7 N    -3.474199764264E-01  4.194188689585E-01 -2.843259840470E-02
    233 F   7 N    -1.810126219783E-01 -2.331611546151E-01 -1.525800235736E-01
    234 F   7 N    -2.331611546151E-01 -1.525800235736E-01 -1.810126219783E-01
    235 F   7 N     4.194188689585E-01 -2.843259840470E-02 -3.474199764264E-01
    236 F   7 N    -2.668388453849E-01 -4.478514673632E-01  8.058113104150E-02
    237 F   7 N     8.058113104150E-02 -2.668388453849E-01 -4.478514673632E-01
    238 F   7 N    -4.715674015953E-01 -5.214853263680E-02 -3.189873780217E-01
    239 F   7 N    -3.189873780217E-01 -4.715674015953E-01 -5.214853263680E-02
    240 F   7 N    -2.843259840470E-02 -3.474199764264E-01  4.194188689585E-01
    241 T 278 PT   -1.143321143622E-01 -2.271489445130E-01 -5.359021421618E-02
    242 F 278 PT    3.264412697032E-01 -6.074190014601E-02 -4.464097857838E-01
    243 F 278 PT   -3.856678856378E-01 -4.392580998540E-01 -1.128168301508E-01
    244 F 278 PT    1.735587302968E-01 -2.728510554870E-01 -3.871831698492E-01
    245 F 278 PT   -5.359021421618E-02 -1.143321143622E-01 -2.271489445130E-01
    246 F 278 PT   -2.271489445130E-01 -5.359021421618E-02 -1.143321143622E-01
    247 F 278 PT   -3.871831698492E-01  1.735587302968E-01 -2.728510554870E-01
    248 F 278 PT   -6.074190014601E-02 -4.464097857838E-01  3.264412697032E-01
    249 F 278 PT   -4.464097857838E-01  3.264412697032E-01 -6.074190014601E-02
    250 F 278 PT   -4.392580998540E-01 -1.128168301508E-01 -3.856678856378E-01
    251 F 278 PT   -1.128168301508E-01 -3.856678856378E-01 -4.392580998540E-01
    252 F 278 PT   -2.728510554870E-01 -3.871831698492E-01  1.735587302968E-01
    253 F 278 PT    2.728510554870E-01  3.856678856378E-01  4.464097857838E-01
    254 F 278 PT    4.392580998540E-01 -1.735587302968E-01  5.359021421618E-02
    255 F 278 PT    6.074190014601E-02  1.143321143622E-01  3.871831698492E-01
    256 F 278 PT    2.271489445130E-01 -3.264412697032E-01  1.128168301508E-01
    257 F 278 PT    3.856678856378E-01  4.464097857838E-01  2.728510554870E-01
    258 F 278 PT    4.464097857838E-01  2.728510554870E-01  3.856678856378E-01
    259 F 278 PT   -3.264412697032E-01  1.128168301508E-01  2.271489445130E-01
    260 F 278 PT    5.359021421618E-02  4.392580998540E-01 -1.735587302968E-01
    261 F 278 PT   -1.735587302968E-01  5.359021421618E-02  4.392580998540E-01
    262 F 278 PT    3.871831698492E-01  6.074190014601E-02  1.143321143622E-01
    263 F 278 PT    1.143321143622E-01  3.871831698492E-01  6.074190014601E-02
    264 F 278 PT    1.128168301508E-01  2.271489445130E-01 -3.264412697032E-01
    265 T  17 CL   -3.531799814210E-02 -2.151426682233E-01  6.395499662664E-02
    266 F  17 CL    2.209023351501E-01 -9.927299476874E-02  4.360450033734E-01
    267 F  17 CL   -4.646820018579E-01 -4.007270052313E-01 -1.798246700812E-01
    268 F  17 CL    2.790976648499E-01 -2.848573317767E-01 -3.201753299188E-01
    269 F  17 CL    6.395499662664E-02 -3.531799814210E-02 -2.151426682233E-01
    270 F  17 CL   -2.151426682233E-01  6.395499662664E-02 -3.531799814210E-02
    271 F  17 CL   -3.201753299188E-01  2.790976648499E-01 -2.848573317767E-01
    272 F  17 CL   -9.927299476874E-02  4.360450033734E-01  2.209023351501E-01
    273 F  17 CL    4.360450033734E-01  2.209023351501E-01 -9.927299476874E-02
    274 F  17 CL   -4.007270052313E-01 -1.798246700812E-01 -4.646820018579E-01
    275 F  17 CL   -1.798246700812E-01 -4.646820018579E-01 -4.007270052313E-01
    276 F  17 CL   -2.848573317767E-01 -3.201753299188E-01  2.790976648499E-01
    277 F  17 CL    2.848573317767E-01  4.646820018579E-01 -4.360450033734E-01
    278 F  17 CL    4.007270052313E-01 -2.790976648499E-01 -6.395499662664E-02
    279 F  17 CL    9.927299476874E-02  3.531799814210E-02  3.201753299188E-01
    280 F  17 CL    2.151426682233E-01 -2.209023351501E-01  1.798246700812E-01
    281 F  17 CL    4.646820018579E-01 -4.360450033734E-01  2.848573317767E-01
    282 F  17 CL   -4.360450033734E-01  2.848573317767E-01  4.646820018579E-01
    283 F  17 CL   -2.209023351501E-01  1.798246700812E-01  2.151426682233E-01
    284 F  17 CL   -6.395499662664E-02  4.007270052313E-01 -2.790976648499E-01
    285 F  17 CL   -2.790976648499E-01 -6.395499662664E-02  4.007270052313E-01
    286 F  17 CL    3.201753299188E-01  9.927299476874E-02  3.531799814210E-02
    287 F  17 CL    3.531799814210E-02  3.201753299188E-01  9.927299476874E-02
    288 F  17 CL    1.798246700812E-01  2.151426682233E-01 -2.209023351501E-01
    289 T   6 C     2.500000000000E-01 -3.750000000000E-01  3.750000000000E-01
    290 F   6 C    -2.500000000000E-01 -1.250000000000E-01  1.250000000000E-01
    291 F   6 C     3.750000000000E-01  2.500000000000E-01 -3.750000000000E-01
    292 F   6 C    -3.750000000000E-01  3.750000000000E-01  2.500000000000E-01
    293 F   6 C     1.250000000000E-01 -2.500000000000E-01 -1.250000000000E-01
    294 F   6 C    -1.250000000000E-01  1.250000000000E-01 -2.500000000000E-01

 TRANSFORMATION MATRIX PRIMITIVE-CRYSTALLOGRAPHIC CELL
  0.0000  1.0000  1.0000  1.0000  0.0000  1.0000  1.0000  1.0000  0.0000

 *******************************************************************************
 CRYSTALLOGRAPHIC CELL (VOLUME=      13465.06929378)
         A              B              C           ALPHA      BETA       GAMMA 
    23.79046136    23.79046136    23.79046136    90.000000  90.000000  90.000000

 COORDINATES IN THE CRYSTALLOGRAPHIC CELL
     ATOM                 X/A                 Y/B                 Z/C    
 *******************************************************************************
      1 T   6 C     3.374046514543E-01  7.620050919280E-02  1.824190529260E-01
      2 F   6 C     1.625953485457E-01 -7.620050919280E-02 -3.175809470740E-01
      3 F   6 C     3.374046514543E-01 -7.620050919280E-02  3.175809470740E-01
      4 F   6 C     1.625953485457E-01  7.620050919280E-02 -1.824190529260E-01
      5 F   6 C     1.824190529260E-01  3.374046514543E-01  7.620050919280E-02
      6 F   6 C     7.620050919280E-02  1.824190529260E-01  3.374046514543E-01
      7 F   6 C    -1.824190529260E-01  1.625953485457E-01  7.620050919280E-02
      8 F   6 C    -7.620050919280E-02 -3.175809470740E-01  1.625953485457E-01
      9 F   6 C    -3.175809470740E-01  1.625953485457E-01 -7.620050919280E-02
     10 F   6 C    -7.620050919280E-02  3.175809470740E-01  3.374046514543E-01
     11 F   6 C     3.175809470740E-01  3.374046514543E-01 -7.620050919280E-02
     12 F   6 C     7.620050919280E-02 -1.824190529260E-01  1.625953485457E-01
     13 F   6 C    -1.737994908072E-01  8.740465145430E-02 -6.758094707400E-02
     14 F   6 C     1.737994908072E-01  4.125953485457E-01 -6.758094707400E-02
     15 F   6 C    -3.262005091928E-01  8.740465145430E-02  6.758094707400E-02
     16 F   6 C    -1.737994908072E-01 -8.740465145430E-02 -4.324190529260E-01
     17 F   6 C     8.740465145430E-02 -6.758094707400E-02 -1.737994908072E-01
     18 F   6 C    -6.758094707400E-02 -1.737994908072E-01  8.740465145430E-02
     19 F   6 C    -8.740465145430E-02 -4.324190529260E-01 -1.737994908072E-01
     20 F   6 C    -6.758094707400E-02  1.737994908072E-01  4.125953485457E-01
     21 F   6 C     4.125953485457E-01 -6.758094707400E-02  1.737994908072E-01
     22 F   6 C     6.758094707400E-02 -3.262005091928E-01  8.740465145430E-02
     23 F   6 C     8.740465145430E-02  6.758094707400E-02 -3.262005091928E-01
     24 F   6 C    -4.324190529260E-01 -1.737994908072E-01 -8.740465145430E-02
     25 T   1 H     3.757856547980E-01  8.044463551372E-02  1.576915306247E-01
     26 F   1 H     1.242143452020E-01 -8.044463551372E-02 -3.423084693753E-01
     27 F   1 H    -1.242143452020E-01  4.195553644863E-01 -1.576915306247E-01
     28 F   1 H     1.242143452020E-01  8.044463551372E-02 -1.576915306247E-01
     29 F   1 H     1.576915306247E-01  3.757856547980E-01  8.044463551372E-02
     30 F   1 H     8.044463551372E-02  1.576915306247E-01  3.757856547980E-01
     31 F   1 H    -1.576915306247E-01  1.242143452020E-01  8.044463551372E-02
     32 F   1 H    -8.044463551372E-02 -3.423084693753E-01  1.242143452020E-01
     33 F   1 H    -3.423084693753E-01  1.242143452020E-01 -8.044463551372E-02
     34 F   1 H     4.195553644863E-01 -1.576915306247E-01 -1.242143452020E-01
     35 F   1 H    -1.576915306247E-01 -1.242143452020E-01  4.195553644863E-01
     36 F   1 H     8.044463551372E-02 -1.576915306247E-01  1.242143452020E-01
     37 F   1 H    -1.695553644863E-01  1.257856547980E-01 -9.230846937530E-02
     38 F   1 H     1.695553644863E-01  3.742143452020E-01 -9.230846937530E-02
     39 F   1 H    -3.304446355137E-01  1.257856547980E-01  9.230846937530E-02
     40 F   1 H    -1.695553644863E-01 -1.257856547980E-01 -4.076915306247E-01
     41 F   1 H     1.257856547980E-01 -9.230846937530E-02 -1.695553644863E-01
     42 F   1 H    -9.230846937530E-02 -1.695553644863E-01  1.257856547980E-01
     43 F   1 H    -1.257856547980E-01 -4.076915306247E-01 -1.695553644863E-01
     44 F   1 H    -9.230846937530E-02  1.695553644863E-01  3.742143452020E-01
     45 F   1 H     3.742143452020E-01 -9.230846937530E-02  1.695553644863E-01
     46 F   1 H     9.230846937530E-02 -3.304446355137E-01  1.257856547980E-01
     47 F   1 H     1.257856547980E-01  9.230846937530E-02 -3.304446355137E-01
     48 F   1 H    -4.076915306247E-01 -1.695553644863E-01 -1.257856547980E-01
     49 T   6 C     3.349893940644E-01  4.750646864479E-02  2.338920497029E-01
     50 F   6 C     1.650106059356E-01 -4.750646864479E-02 -2.661079502971E-01
     51 F   6 C     3.349893940644E-01 -4.750646864479E-02  2.661079502971E-01
     52 F   6 C     1.650106059356E-01  4.750646864479E-02 -2.338920497029E-01
     53 F   6 C     2.338920497029E-01  3.349893940644E-01  4.750646864479E-02
     54 F   6 C     4.750646864479E-02  2.338920497029E-01  3.349893940644E-01
     55 F   6 C    -2.338920497029E-01  1.650106059356E-01  4.750646864479E-02
     56 F   6 C    -4.750646864479E-02 -2.661079502971E-01  1.650106059356E-01
     57 F   6 C    -2.661079502971E-01  1.650106059356E-01 -4.750646864479E-02
     58 F   6 C    -4.750646864479E-02  2.661079502971E-01  3.349893940644E-01
     59 F   6 C     2.661079502971E-01  3.349893940644E-01 -4.750646864479E-02
     60 F   6 C     4.750646864479E-02 -2.338920497029E-01  1.650106059356E-01
     61 F   6 C    -2.024935313552E-01  8.498939406440E-02 -1.610795029710E-02
     62 F   6 C     2.024935313552E-01  4.150106059356E-01 -1.610795029710E-02
     63 F   6 C    -2.975064686448E-01  8.498939406440E-02  1.610795029710E-02
     64 F   6 C     2.975064686448E-01  4.150106059356E-01  1.610795029710E-02
     65 F   6 C     8.498939406440E-02 -1.610795029710E-02 -2.024935313552E-01
     66 F   6 C    -1.610795029710E-02 -2.024935313552E-01  8.498939406440E-02
     67 F   6 C     4.150106059356E-01  1.610795029710E-02  2.975064686448E-01
     68 F   6 C    -1.610795029710E-02  2.024935313552E-01  4.150106059356E-01
     69 F   6 C     4.150106059356E-01 -1.610795029710E-02  2.024935313552E-01
     70 F   6 C     1.610795029710E-02 -2.975064686448E-01  8.498939406440E-02
     71 F   6 C     8.498939406440E-02  1.610795029710E-02 -2.975064686448E-01
     72 F   6 C     1.610795029710E-02  2.975064686448E-01  4.150106059356E-01
     73 T   6 C     2.855630879544E-01  5.392283521658E-02  2.662797645967E-01
     74 F   6 C     2.144369120456E-01 -5.392283521658E-02 -2.337202354033E-01
     75 F   6 C     2.855630879544E-01 -5.392283521658E-02  2.337202354033E-01
     76 F   6 C     2.144369120456E-01  5.392283521658E-02 -2.662797645967E-01
     77 F   6 C     2.662797645967E-01  2.855630879544E-01  5.392283521658E-02
     78 F   6 C     5.392283521658E-02  2.662797645967E-01  2.855630879544E-01
     79 F   6 C    -2.662797645967E-01  2.144369120456E-01  5.392283521658E-02
     80 F   6 C    -5.392283521658E-02 -2.337202354033E-01  2.144369120456E-01
     81 F   6 C    -2.337202354033E-01  2.144369120456E-01 -5.392283521658E-02
     82 F   6 C    -5.392283521658E-02  2.337202354033E-01  2.855630879544E-01
     83 F   6 C     2.337202354033E-01  2.855630879544E-01 -5.392283521658E-02
     84 F   6 C     5.392283521658E-02 -2.662797645967E-01  2.144369120456E-01
     85 F   6 C    -1.960771647834E-01  3.556308795440E-02  1.627976459670E-02
     86 F   6 C     1.960771647834E-01  4.644369120456E-01  1.627976459670E-02
     87 F   6 C    -3.039228352166E-01  3.556308795440E-02 -1.627976459670E-02
     88 F   6 C    -1.960771647834E-01 -3.556308795440E-02  4.837202354033E-01
     89 F   6 C     3.556308795440E-02  1.627976459670E-02 -1.960771647834E-01
     90 F   6 C     1.627976459670E-02 -1.960771647834E-01  3.556308795440E-02
     91 F   6 C    -3.556308795440E-02  4.837202354033E-01 -1.960771647834E-01
     92 F   6 C     1.627976459670E-02  1.960771647834E-01  4.644369120456E-01
     93 F   6 C     4.644369120456E-01  1.627976459670E-02  1.960771647834E-01
     94 F   6 C    -1.627976459670E-02 -3.039228352166E-01  3.556308795440E-02
     95 F   6 C     3.556308795440E-02 -1.627976459670E-02 -3.039228352166E-01
     96 F   6 C     4.837202354033E-01 -1.960771647834E-01 -3.556308795440E-02
     97 T   1 H     2.819932607402E-01  3.973708878167E-02  3.098225540487E-01
     98 F   1 H     2.180067392598E-01 -3.973708878167E-02 -1.901774459513E-01
     99 F   1 H     2.819932607402E-01 -3.973708878167E-02  1.901774459513E-01
    100 F   1 H     2.180067392598E-01  3.973708878167E-02 -3.098225540487E-01
    101 F   1 H     3.098225540487E-01  2.819932607402E-01  3.973708878167E-02
    102 F   1 H     3.973708878167E-02  3.098225540487E-01  2.819932607402E-01
    103 F   1 H    -3.098225540487E-01  2.180067392598E-01  3.973708878167E-02
    104 F   1 H    -3.973708878167E-02 -1.901774459513E-01  2.180067392598E-01
    105 F   1 H    -1.901774459513E-01  2.180067392598E-01 -3.973708878167E-02
    106 F   1 H    -3.973708878167E-02  1.901774459513E-01  2.819932607402E-01
    107 F   1 H     1.901774459513E-01  2.819932607402E-01 -3.973708878167E-02
    108 F   1 H     3.973708878167E-02 -3.098225540487E-01  2.180067392598E-01
    109 F   1 H    -2.102629112183E-01  3.199326074020E-02  5.982255404870E-02
    110 F   1 H     2.102629112183E-01  4.680067392598E-01  5.982255404870E-02
    111 F   1 H    -2.897370887817E-01  3.199326074020E-02 -5.982255404870E-02
    112 F   1 H    -2.102629112183E-01 -3.199326074020E-02  4.401774459513E-01
    113 F   1 H     3.199326074020E-02  5.982255404870E-02 -2.102629112183E-01
    114 F   1 H     5.982255404870E-02 -2.102629112183E-01  3.199326074020E-02
    115 F   1 H    -3.199326074020E-02  4.401774459513E-01 -2.102629112183E-01
    116 F   1 H     5.982255404870E-02  2.102629112183E-01  4.680067392598E-01
    117 F   1 H     4.680067392598E-01  5.982255404870E-02  2.102629112183E-01
    118 F   1 H    -5.982255404870E-02 -2.897370887817E-01  3.199326074020E-02
    119 F   1 H     3.199326074020E-02 -5.982255404870E-02 -2.897370887817E-01
    120 F   1 H     4.401774459513E-01 -2.102629112183E-01 -3.199326074020E-02
    121 T   7 N     2.392727396945E-01  7.615261847319E-02  2.448656593163E-01
    122 F   7 N     2.607272603055E-01 -7.615261847319E-02 -2.551343406837E-01
    123 F   7 N     2.392727396945E-01 -7.615261847319E-02  2.551343406837E-01
    124 F   7 N     2.607272603055E-01  7.615261847319E-02 -2.448656593163E-01
    125 F   7 N     2.448656593163E-01  2.392727396945E-01  7.615261847319E-02
    126 F   7 N     7.615261847319E-02  2.448656593163E-01  2.392727396945E-01
    127 F   7 N    -2.448656593163E-01  2.607272603055E-01  7.615261847319E-02
    128 F   7 N    -7.615261847319E-02 -2.551343406837E-01  2.607272603055E-01
    129 F   7 N    -2.551343406837E-01  2.607272603055E-01 -7.615261847319E-02
    130 F   7 N    -7.615261847319E-02  2.551343406837E-01  2.392727396945E-01
    131 F   7 N     2.551343406837E-01  2.392727396945E-01 -7.615261847319E-02
    132 F   7 N     7.615261847319E-02 -2.448656593163E-01  2.607272603055E-01
    133 F   7 N    -1.738473815268E-01 -1.072726030550E-02 -5.134340683700E-03
    134 F   7 N     1.738473815268E-01 -4.892727396945E-01 -5.134340683700E-03
    135 F   7 N    -3.261526184732E-01 -1.072726030550E-02  5.134340683700E-03
    136 F   7 N    -1.738473815268E-01  1.072726030550E-02 -4.948656593163E-01
    137 F   7 N    -1.072726030550E-02 -5.134340683700E-03 -1.738473815268E-01
    138 F   7 N    -5.134340683700E-03 -1.738473815268E-01 -1.072726030550E-02
    139 F   7 N     1.072726030550E-02 -4.948656593163E-01 -1.738473815268E-01
    140 F   7 N    -5.134340683700E-03  1.738473815268E-01 -4.892727396945E-01
    141 F   7 N    -4.892727396945E-01 -5.134340683700E-03  1.738473815268E-01
    142 F   7 N     5.134340683700E-03 -3.261526184732E-01 -1.072726030550E-02
    143 F   7 N    -1.072726030550E-02  5.134340683700E-03 -3.261526184732E-01
    144 F   7 N    -4.948656593163E-01 -1.738473815268E-01  1.072726030550E-02
    145 T   6 C     2.421733630243E-01  9.404577148149E-02  1.896595086655E-01
    146 F   6 C     2.578266369757E-01 -9.404577148149E-02 -3.103404913345E-01
    147 F   6 C     2.421733630243E-01 -9.404577148149E-02  3.103404913345E-01
    148 F   6 C     2.578266369757E-01  9.404577148149E-02 -1.896595086655E-01
    149 F   6 C     1.896595086655E-01  2.421733630243E-01  9.404577148149E-02
    150 F   6 C     9.404577148149E-02  1.896595086655E-01  2.421733630243E-01
    151 F   6 C    -1.896595086655E-01  2.578266369757E-01  9.404577148149E-02
    152 F   6 C    -9.404577148149E-02 -3.103404913345E-01  2.578266369757E-01
    153 F   6 C    -3.103404913345E-01  2.578266369757E-01 -9.404577148149E-02
    154 F   6 C    -9.404577148149E-02  3.103404913345E-01  2.421733630243E-01
    155 F   6 C     3.103404913345E-01  2.421733630243E-01 -9.404577148149E-02
    156 F   6 C     9.404577148149E-02 -1.896595086655E-01  2.578266369757E-01
    157 F   6 C    -1.559542285185E-01 -7.826636975700E-03 -6.034049133450E-02
    158 F   6 C     1.559542285185E-01 -4.921733630243E-01 -6.034049133450E-02
    159 F   6 C    -3.440457714815E-01 -7.826636975700E-03  6.034049133450E-02
    160 F   6 C    -1.559542285185E-01  7.826636975700E-03 -4.396595086655E-01
    161 F   6 C    -7.826636975700E-03 -6.034049133450E-02 -1.559542285185E-01
    162 F   6 C    -6.034049133450E-02 -1.559542285185E-01 -7.826636975700E-03
    163 F   6 C     7.826636975700E-03 -4.396595086655E-01 -1.559542285185E-01
    164 F   6 C    -6.034049133450E-02  1.559542285185E-01 -4.921733630243E-01
    165 F   6 C    -4.921733630243E-01 -6.034049133450E-02  1.559542285185E-01
    166 F   6 C     6.034049133450E-02 -3.440457714815E-01 -7.826636975700E-03
    167 F   6 C    -7.826636975700E-03  6.034049133450E-02 -3.440457714815E-01
    168 F   6 C    -4.396595086655E-01 -1.559542285185E-01  7.826636975700E-03
    169 T   6 C     1.933833011188E-01  1.157277127311E-01  1.660149071056E-01
    170 F   6 C    -1.933833011188E-01  3.842722872689E-01  1.660149071056E-01
    171 F   6 C     1.933833011188E-01 -1.157277127311E-01  3.339850928944E-01
    172 F   6 C     3.066166988812E-01  1.157277127311E-01 -1.660149071056E-01
    173 F   6 C     1.660149071056E-01  1.933833011188E-01  1.157277127311E-01
    174 F   6 C     1.157277127311E-01  1.660149071056E-01  1.933833011188E-01
    175 F   6 C    -1.660149071056E-01  3.066166988812E-01  1.157277127311E-01
    176 F   6 C     3.842722872689E-01  1.660149071056E-01 -1.933833011188E-01
    177 F   6 C     1.660149071056E-01 -1.933833011188E-01  3.842722872689E-01
    178 F   6 C    -1.157277127311E-01  3.339850928944E-01  1.933833011188E-01
    179 F   6 C     3.339850928944E-01  1.933833011188E-01 -1.157277127311E-01
    180 F   6 C     1.157277127311E-01 -1.660149071056E-01  3.066166988812E-01
    181 F   6 C    -1.342722872689E-01 -5.661669888120E-02 -8.398509289440E-02
    182 F   6 C     1.342722872689E-01 -4.433833011188E-01 -8.398509289440E-02
    183 F   6 C    -3.657277127311E-01 -5.661669888120E-02  8.398509289440E-02
    184 F   6 C    -1.342722872689E-01  5.661669888120E-02 -4.160149071056E-01
    185 F   6 C    -5.661669888120E-02 -8.398509289440E-02 -1.342722872689E-01
    186 F   6 C    -8.398509289440E-02 -1.342722872689E-01 -5.661669888120E-02
    187 F   6 C     5.661669888120E-02 -4.160149071056E-01 -1.342722872689E-01
    188 F   6 C    -8.398509289440E-02  1.342722872689E-01 -4.433833011188E-01
    189 F   6 C    -4.433833011188E-01 -8.398509289440E-02  1.342722872689E-01
    190 F   6 C     8.398509289440E-02 -3.657277127311E-01 -5.661669888120E-02
    191 F   6 C    -5.661669888120E-02  8.398509289440E-02 -3.657277127311E-01
    192 F   6 C    -4.160149071056E-01 -1.342722872689E-01  5.661669888120E-02
    193 T   7 N     2.921024861206E-01  1.014288226144E-01  1.611213392442E-01
    194 F   7 N     2.078975138794E-01 -1.014288226144E-01 -3.388786607558E-01
    195 F   7 N     2.921024861206E-01 -1.014288226144E-01  3.388786607558E-01
    196 F   7 N     2.078975138794E-01  1.014288226144E-01 -1.611213392442E-01
    197 F   7 N     1.611213392442E-01  2.921024861206E-01  1.014288226144E-01
    198 F   7 N     1.014288226144E-01  1.611213392442E-01  2.921024861206E-01
    199 F   7 N    -1.611213392442E-01  2.078975138794E-01  1.014288226144E-01
    200 F   7 N    -1.014288226144E-01 -3.388786607558E-01  2.078975138794E-01
    201 F   7 N    -3.388786607558E-01  2.078975138794E-01 -1.014288226144E-01
    202 F   7 N    -1.014288226144E-01  3.388786607558E-01  2.921024861206E-01
    203 F   7 N     3.388786607558E-01  2.921024861206E-01 -1.014288226144E-01
    204 F   7 N     1.014288226144E-01 -1.611213392442E-01  2.078975138794E-01
    205 F   7 N    -1.485711773856E-01  4.210248612060E-02 -8.887866075580E-02
    206 F   7 N     1.485711773856E-01  4.578975138794E-01 -8.887866075580E-02
    207 F   7 N    -3.514288226144E-01  4.210248612060E-02  8.887866075580E-02
    208 F   7 N    -1.485711773856E-01 -4.210248612060E-02 -4.111213392442E-01
    209 F   7 N     4.210248612060E-02 -8.887866075580E-02 -1.485711773856E-01
    210 F   7 N    -8.887866075580E-02 -1.485711773856E-01  4.210248612060E-02
    211 F   7 N    -4.210248612060E-02 -4.111213392442E-01 -1.485711773856E-01
    212 F   7 N    -8.887866075580E-02  1.485711773856E-01  4.578975138794E-01
    213 F   7 N     4.578975138794E-01 -8.887866075580E-02  1.485711773856E-01
    214 F   7 N     8.887866075580E-02 -3.514288226144E-01  4.210248612060E-02
    215 F   7 N     4.210248612060E-02  8.887866075580E-02 -3.514288226144E-01
    216 F   7 N    -4.111213392442E-01 -1.485711773856E-01 -4.210248612060E-02
    217 T   7 N     1.476357218948E-01  1.192031234901E-01  1.997842545316E-01
    218 F   7 N    -1.476357218948E-01  3.807968765099E-01  1.997842545316E-01
    219 F   7 N     1.476357218948E-01 -1.192031234901E-01  3.002157454684E-01
    220 F   7 N     3.523642781052E-01  1.192031234901E-01 -1.997842545316E-01
    221 F   7 N     1.997842545316E-01  1.476357218948E-01  1.192031234901E-01
    222 F   7 N     1.192031234901E-01  1.997842545316E-01  1.476357218948E-01
    223 F   7 N    -1.997842545316E-01  3.523642781052E-01  1.192031234901E-01
    224 F   7 N     3.807968765099E-01  1.997842545316E-01 -1.476357218948E-01
    225 F   7 N     1.997842545316E-01 -1.476357218948E-01  3.807968765099E-01
    226 F   7 N    -1.192031234901E-01  3.002157454684E-01  1.476357218948E-01
    227 F   7 N     3.002157454684E-01  1.476357218948E-01 -1.192031234901E-01
    228 F   7 N     1.192031234901E-01 -1.997842545316E-01  3.523642781052E-01
    229 F   7 N    -1.307968765099E-01 -1.023642781052E-01 -5.021574546840E-02
    230 F   7 N     1.307968765099E-01 -3.976357218948E-01 -5.021574546840E-02
    231 F   7 N    -3.692031234901E-01 -1.023642781052E-01  5.021574546840E-02
    232 F   7 N    -1.307968765099E-01  1.023642781052E-01 -4.497842545316E-01
    233 F   7 N    -1.023642781052E-01 -5.021574546840E-02 -1.307968765099E-01
    234 F   7 N    -5.021574546840E-02 -1.307968765099E-01 -1.023642781052E-01
    235 F   7 N     1.023642781052E-01 -4.497842545316E-01 -1.307968765099E-01
    236 F   7 N    -5.021574546840E-02  1.307968765099E-01 -3.976357218948E-01
    237 F   7 N    -3.976357218948E-01 -5.021574546840E-02  1.307968765099E-01
    238 F   7 N     5.021574546840E-02 -3.692031234901E-01 -1.023642781052E-01
    239 F   7 N    -1.023642781052E-01  5.021574546840E-02 -3.692031234901E-01
    240 F   7 N    -4.497842545316E-01 -1.307968765099E-01  1.023642781052E-01
    241 T 278 PT   -8.320352218349E-02  2.961330796731E-02 -1.439454223295E-01
    242 F 278 PT    8.320352218349E-02  4.703866920327E-01 -1.439454223295E-01
    243 F 278 PT   -8.320352218349E-02 -2.961330796731E-02 -3.560545776705E-01
    244 F 278 PT   -4.167964778165E-01  2.961330796731E-02  1.439454223295E-01
    245 F 278 PT   -1.439454223295E-01 -8.320352218349E-02  2.961330796731E-02
    246 F 278 PT    2.961330796731E-02 -1.439454223295E-01 -8.320352218349E-02
    247 F 278 PT    1.439454223295E-01 -4.167964778165E-01  2.961330796731E-02
    248 F 278 PT    4.703866920327E-01 -1.439454223295E-01  8.320352218349E-02
    249 F 278 PT   -1.439454223295E-01  8.320352218349E-02  4.703866920327E-01
    250 F 278 PT   -2.961330796731E-02 -3.560545776705E-01 -8.320352218349E-02
    251 F 278 PT   -3.560545776705E-01 -8.320352218349E-02 -2.961330796731E-02
    252 F 278 PT    2.961330796731E-02  1.439454223295E-01 -4.167964778165E-01
    253 F 278 PT    2.796133079673E-01  1.667964778165E-01  1.060545776705E-01
    254 F 278 PT   -2.796133079673E-01  3.332035221835E-01  1.060545776705E-01
    255 F 278 PT    2.203866920327E-01  1.667964778165E-01 -1.060545776705E-01
    256 F 278 PT   -2.203866920327E-01  3.332035221835E-01 -1.060545776705E-01
    257 F 278 PT    1.667964778165E-01  1.060545776705E-01  2.796133079673E-01
    258 F 278 PT    1.060545776705E-01  2.796133079673E-01  1.667964778165E-01
    259 F 278 PT    3.332035221835E-01 -1.060545776705E-01 -2.203866920327E-01
    260 F 278 PT    1.060545776705E-01 -2.796133079673E-01  3.332035221835E-01
    261 F 278 PT    3.332035221835E-01  1.060545776705E-01 -2.796133079673E-01
    262 F 278 PT   -1.060545776705E-01  2.203866920327E-01  1.667964778165E-01
    263 F 278 PT    1.667964778165E-01 -1.060545776705E-01  2.203866920327E-01
    264 F 278 PT   -1.060545776705E-01 -2.203866920327E-01  3.332035221835E-01
    265 T  17 CL   -5.793483672726E-02  1.218898333539E-01 -1.572078314960E-01
    266 F  17 CL    5.793483672726E-02  3.781101666461E-01 -1.572078314960E-01
    267 F  17 CL   -5.793483672726E-02 -1.218898333539E-01 -3.427921685040E-01
    268 F  17 CL   -4.420651632727E-01  1.218898333539E-01  1.572078314960E-01
    269 F  17 CL   -1.572078314960E-01 -5.793483672726E-02  1.218898333539E-01
    270 F  17 CL    1.218898333539E-01 -1.572078314960E-01 -5.793483672726E-02
    271 F  17 CL    1.572078314960E-01 -4.420651632727E-01  1.218898333539E-01
    272 F  17 CL    3.781101666461E-01 -1.572078314960E-01  5.793483672726E-02
    273 F  17 CL   -1.572078314960E-01  5.793483672726E-02  3.781101666461E-01
    274 F  17 CL   -1.218898333539E-01 -3.427921685040E-01 -5.793483672726E-02
    275 F  17 CL   -3.427921685040E-01 -5.793483672726E-02 -1.218898333539E-01
    276 F  17 CL    1.218898333539E-01  1.572078314960E-01 -4.420651632727E-01
    277 F  17 CL    3.718898333539E-01  1.920651632727E-01  9.279216850400E-02
    278 F  17 CL    1.281101666461E-01 -1.920651632727E-01 -4.072078314960E-01
    279 F  17 CL    1.281101666461E-01  1.920651632727E-01 -9.279216850400E-02
    280 F  17 CL   -1.281101666461E-01  3.079348367273E-01 -9.279216850400E-02
    281 F  17 CL    1.920651632727E-01  9.279216850400E-02  3.718898333539E-01
    282 F  17 CL    9.279216850400E-02  3.718898333539E-01  1.920651632727E-01
    283 F  17 CL    3.079348367273E-01 -9.279216850400E-02 -1.281101666461E-01
    284 F  17 CL   -4.072078314960E-01  1.281101666461E-01 -1.920651632727E-01
    285 F  17 CL   -1.920651632727E-01 -4.072078314960E-01  1.281101666461E-01
    286 F  17 CL   -9.279216850400E-02  1.281101666461E-01  1.920651632727E-01
    287 F  17 CL    1.920651632727E-01 -9.279216850400E-02  1.281101666461E-01
    288 F  17 CL   -9.279216850400E-02 -1.281101666461E-01  3.079348367273E-01
    289 T   6 C     3.750000000000E-01  7.999599911877E-18  2.500000000000E-01
    290 F   6 C     1.250000000000E-01 -3.151235149563E-17 -2.500000000000E-01
    291 F   6 C     2.500000000000E-01  3.750000000000E-01  5.175437535126E-17
    292 F   6 C    -2.121412015939E-18  2.500000000000E-01  3.750000000000E-01
    293 F   6 C    -2.500000000000E-01  1.250000000000E-01 -5.060505963908E-18
    294 F   6 C    -9.126632675876E-17 -2.500000000000E-01  1.250000000000E-01

 T = ATOM BELONGING TO THE ASYMMETRIC UNIT

 ****   24 SYMMOPS - TRANSLATORS IN FRACTIONAL UNITS
 **** MATRICES AND TRANSLATORS IN THE CRYSTALLOGRAPHIC REFERENCE FRAME
   V INV                    ROTATION MATRICES                   TRANSLATORS
   1   1  1.00  0.00  0.00  0.00  1.00  0.00  0.00  0.00  1.00  0.00  0.00  0.00
   2   2  0.00  1.00 -1.00  1.00  0.00 -1.00 -0.00  0.00 -1.00  0.50 -0.00  0.50
   3   3 -1.00 -0.00  0.00 -1.00 -0.00  1.00 -1.00  1.00 -0.00  0.50  0.50 -0.00
   4   4 -0.00 -1.00  1.00 -0.00 -1.00  0.00  1.00 -1.00  0.00  0.00  0.50  0.50
   5   6  0.00 -0.00  1.00  1.00 -0.00  0.00 -0.00  1.00  0.00  0.00  0.00  0.00
   6   5 -0.00  1.00  0.00 -0.00  0.00  1.00  1.00  0.00 -0.00  0.00  0.00  0.00
   7   8  1.00 -1.00  0.00  0.00 -1.00  1.00  0.00 -1.00 -0.00  0.50 -0.00  0.50
   8   7  1.00 -0.00 -1.00  0.00 -0.00 -1.00  0.00  1.00 -1.00  0.00  0.50  0.50
   9  10 -0.00  0.00 -1.00 -0.00  1.00 -1.00  1.00 -0.00 -1.00  0.50  0.50 -0.00
  10   9 -1.00  0.00  1.00 -1.00  1.00  0.00 -1.00 -0.00  0.00  0.50 -0.00  0.50
  11  12 -1.00  1.00 -0.00 -1.00  0.00 -0.00 -1.00  0.00  1.00  0.00  0.50  0.50
  12  11  0.00 -1.00 -0.00  1.00 -1.00 -0.00 -0.00 -1.00  1.00  0.50  0.50 -0.00
[...]
 111 H    1  0.000  0.000  0.000 -0.000
 112 H    1  0.000  0.000  0.000 -0.000
 113 H    1  0.000  0.000  0.000 -0.000
 114 H    1  0.000  0.000  0.000 -0.000
 115 H    1  0.000  0.000  0.000 -0.000
 116 H    1  0.000  0.000  0.000 -0.000
 117 H    1  0.000  0.000  0.000 -0.000
 118 H    1  0.000  0.000  0.000 -0.000
 119 H    1  0.000  0.000  0.000 -0.000
 120 H    1  0.000  0.000  0.000 -0.000
 121 N    7  0.000 -0.000  0.000 -0.000  0.000  0.000  0.000
 122 N    7  0.000 -0.000  0.000 -0.000  0.000  0.000  0.000
 123 N    7  0.000 -0.000  0.000 -0.000  0.000  0.000  0.000
 124 N    7  0.000 -0.000  0.000 -0.000  0.000  0.000  0.000
 125 N    7  0.000 -0.000  0.000 -0.000  0.000  0.000  0.000
 126 N    7  0.000 -0.000  0.000 -0.000  0.000  0.000  0.000
 127 N    7  0.000 -0.000  0.000 -0.000  0.000  0.000  0.000
 128 N    7  0.000 -0.000  0.000 -0.000  0.000  0.000  0.000
 129 N    7  0.000 -0.000  0.000 -0.000  0.000  0.000  0.000
 130 N    7  0.000 -0.000  0.000 -0.000  0.000  0.000  0.000
 131 N    7  0.000 -0.000  0.000 -0.000  0.000  0.000  0.000
 132 N    7  0.000 -0.000  0.000 -0.000  0.000  0.000  0.000
 133 N    7  0.000 -0.000  0.000 -0.000  0.000  0.000  0.000
 134 N    7  0.000 -0.000  0.000 -0.000  0.000  0.000  0.000
 135 N    7  0.000 -0.000  0.000 -0.000  0.000  0.000  0.000
 136 N    7  0.000 -0.000  0.000 -0.000  0.000  0.000  0.000
 137 N    7  0.000 -0.000  0.000 -0.000  0.000  0.000  0.000
 138 N    7  0.000 -0.000  0.000 -0.000  0.000  0.000  0.000
 139 N    7  0.000 -0.000  0.000 -0.000  0.000  0.000  0.000
 140 N    7  0.000 -0.000  0.000 -0.000  0.000  0.000  0.000
 141 N    7  0.000 -0.000  0.000 -0.000  0.000  0.000  0.000
 142 N    7  0.000 -0.000  0.000 -0.000  0.000  0.000  0.000
 143 N    7  0.000 -0.000  0.000 -0.000  0.000  0.000  0.000
 144 N    7  0.000 -0.000  0.000 -0.000  0.000  0.000  0.000
 145 C    6  0.000 -0.000 -0.000 -0.000  0.000  0.000  0.000
 146 C    6  0.000 -0.000 -0.000 -0.000  0.000  0.000  0.000
 147 C    6  0.000 -0.000 -0.000 -0.000  0.000  0.000  0.000
 148 C    6  0.000 -0.000 -0.000 -0.000  0.000  0.000  0.000
 149 C    6  0.000 -0.000 -0.000 -0.000  0.000  0.000  0.000
 150 C    6  0.000 -0.000 -0.000 -0.000  0.000  0.000  0.000
 151 C    6  0.000 -0.000 -0.000 -0.000  0.000  0.000  0.000
 152 C    6  0.000 -0.000 -0.000 -0.000  0.000  0.000  0.000
 153 C    6  0.000 -0.000 -0.000 -0.000  0.000  0.000  0.000
 154 C    6  0.000 -0.000 -0.000 -0.000  0.000  0.000  0.000
 155 C    6  0.000 -0.000 -0.000 -0.000  0.000  0.000  0.000
 156 C    6  0.000 -0.000 -0.000 -0.000  0.000  0.000  0.000
 157 C    6  0.000 -0.000 -0.000 -0.000  0.000  0.000  0.000
 158 C    6  0.000 -0.000 -0.000 -0.000  0.000  0.000  0.000
 159 C    6  0.000 -0.000 -0.000 -0.000  0.000  0.000  0.000
 160 C    6  0.000 -0.000 -0.000 -0.000  0.000  0.000  0.000
 161 C    6  0.000 -0.000 -0.000 -0.000  0.000  0.000  0.000
 162 C    6  0.000 -0.000 -0.000 -0.000  0.000  0.000  0.000
 163 C    6  0.000 -0.000 -0.000 -0.000  0.000  0.000  0.000
 164 C    6  0.000 -0.000 -0.000 -0.000  0.000  0.000  0.000
 165 C    6  0.000 -0.000 -0.000 -0.000  0.000  0.000  0.000
 166 C    6  0.000 -0.000 -0.000 -0.000  0.000  0.000  0.000
 167 C    6  0.000 -0.000 -0.000 -0.000  0.000  0.000  0.000
 168 C    6  0.000 -0.000 -0.000 -0.000  0.000  0.000  0.000
 169 C    6  0.001 -0.000  0.000 -0.000  0.001  0.000  0.000
 170 C    6  0.001 -0.000  0.000 -0.000  0.001  0.000  0.000
 171 C    6  0.001 -0.000  0.000 -0.000  0.001  0.000  0.000
 172 C    6  0.001 -0.000  0.000 -0.000  0.001  0.000  0.000
 173 C    6  0.001 -0.000  0.000 -0.000  0.001  0.000  0.000
 174 C    6  0.001 -0.000  0.000 -0.000  0.001  0.000  0.000
 175 C    6  0.001 -0.000  0.000 -0.000  0.001  0.000  0.000
 176 C    6  0.001 -0.000  0.000 -0.000  0.001  0.000  0.000
 177 C    6  0.001 -0.000  0.000 -0.000  0.001  0.000  0.000
 178 C    6  0.001 -0.000  0.000 -0.000  0.001  0.000  0.000
 179 C    6  0.001 -0.000  0.000 -0.000  0.001  0.000  0.000
 180 C    6  0.001 -0.000  0.000 -0.000  0.001  0.000  0.000
 181 C    6  0.001 -0.000  0.000 -0.000  0.001  0.000  0.000
 182 C    6  0.001 -0.000  0.000 -0.000  0.001  0.000  0.000
 183 C    6  0.001 -0.000  0.000 -0.000  0.001  0.000  0.000
 184 C    6  0.001 -0.000  0.000 -0.000  0.001  0.000  0.000
 185 C    6  0.001 -0.000  0.000 -0.000  0.001  0.000  0.000
 186 C    6  0.001 -0.000  0.000 -0.000  0.001  0.000  0.000
 187 C    6  0.001 -0.000  0.000 -0.000  0.001  0.000  0.000
 188 C    6  0.001 -0.000  0.000 -0.000  0.001  0.000  0.000
 189 C    6  0.001 -0.000  0.000 -0.000  0.001  0.000  0.000
 190 C    6  0.001 -0.000  0.000 -0.000  0.001  0.000  0.000
 191 C    6  0.001 -0.000  0.000 -0.000  0.001  0.000  0.000
 192 C    6  0.001 -0.000  0.000 -0.000  0.001  0.000  0.000
 193 N    7  0.001  0.000  0.000 -0.000  0.000  0.000  0.000
 194 N    7  0.001  0.000  0.000 -0.000  0.000  0.000  0.000
 195 N    7  0.001  0.000  0.000 -0.000  0.000  0.000  0.000
 196 N    7  0.001  0.000  0.000 -0.000  0.000  0.000  0.000
 197 N    7  0.001  0.000  0.000 -0.000  0.000  0.000  0.000
 198 N    7  0.001  0.000  0.000 -0.000  0.000  0.000  0.000
 199 N    7  0.001  0.000  0.000 -0.000  0.000  0.000  0.000
 200 N    7  0.001  0.000  0.000 -0.000  0.000  0.000  0.000
 201 N    7  0.001  0.000  0.000 -0.000  0.000  0.000  0.000
 202 N    7  0.001  0.000  0.000 -0.000  0.000  0.000  0.000
 203 N    7  0.001  0.000  0.000 -0.000  0.000  0.000  0.000
 204 N    7  0.001  0.000  0.000 -0.000  0.000  0.000  0.000
 205 N    7  0.001  0.000  0.000 -0.000  0.000  0.000  0.000
 206 N    7  0.001  0.000  0.000 -0.000  0.000  0.000  0.000
 207 N    7  0.001  0.000  0.000 -0.000  0.000  0.000  0.000
 208 N    7  0.001  0.000  0.000 -0.000  0.000  0.000  0.000
 209 N    7  0.001  0.000  0.000 -0.000  0.000  0.000  0.000
 210 N    7  0.001  0.000  0.000 -0.000  0.000  0.000  0.000
 211 N    7  0.001  0.000  0.000 -0.000  0.000  0.000  0.000
 212 N    7  0.001  0.000  0.000 -0.000  0.000  0.000  0.000
 213 N    7  0.001  0.000  0.000 -0.000  0.000  0.000  0.000
 214 N    7  0.001  0.000  0.000 -0.000  0.000  0.000  0.000
 215 N    7  0.001  0.000  0.000 -0.000  0.000  0.000  0.000
 216 N    7  0.001  0.000  0.000 -0.000  0.000  0.000  0.000
 217 N    7  0.001  0.000  0.000 -0.000  0.001  0.000  0.000
 218 N    7  0.001  0.000  0.000 -0.000  0.001  0.000  0.000
 219 N    7  0.001  0.000  0.000 -0.000  0.001  0.000  0.000
 220 N    7  0.001  0.000  0.000 -0.000  0.001  0.000  0.000
 221 N    7  0.001  0.000  0.000 -0.000  0.001  0.000  0.000
 222 N    7  0.001  0.000  0.000 -0.000  0.001  0.000  0.000
 223 N    7  0.001  0.000  0.000 -0.000  0.001  0.000  0.000
 224 N    7  0.001  0.000  0.000 -0.000  0.001  0.000  0.000
 225 N    7  0.001  0.000  0.000 -0.000  0.001  0.000  0.000
 226 N    7  0.001  0.000  0.000 -0.000  0.001  0.000  0.000
 227 N    7  0.001  0.000  0.000 -0.000  0.001  0.000  0.000
 228 N    7  0.001  0.000  0.000 -0.000  0.001  0.000  0.000
 229 N    7  0.001  0.000  0.000 -0.000  0.001  0.000  0.000
 230 N    7  0.001  0.000  0.000 -0.000  0.001  0.000  0.000
 231 N    7  0.001  0.000  0.000 -0.000  0.001  0.000  0.000
 232 N    7  0.001  0.000  0.000 -0.000  0.001  0.000  0.000
 233 N    7  0.001  0.000  0.000 -0.000  0.001  0.000  0.000
 234 N    7  0.001  0.000  0.000 -0.000  0.001  0.000  0.000
 235 N    7  0.001  0.000  0.000 -0.000  0.001  0.000  0.000
 236 N    7  0.001  0.000  0.000 -0.000  0.001  0.000  0.000
 237 N    7  0.001  0.000  0.000 -0.000  0.001  0.000  0.000
 238 N    7  0.001  0.000  0.000 -0.000  0.001  0.000  0.000
 239 N    7  0.001  0.000  0.000 -0.000  0.001  0.000  0.000
 240 N    7  0.001  0.000  0.000 -0.000  0.001  0.000  0.000
 241 PT 278  0.001  0.000 -0.000  0.000  0.000  0.000  0.000 -0.000  0.000
                    0.000  0.000  0.000
 242 PT 278  0.001  0.000 -0.000  0.000  0.000  0.000  0.000 -0.000  0.000
                    0.000  0.000  0.000
 243 PT 278  0.001  0.000 -0.000  0.000  0.000  0.000  0.000 -0.000  0.000
                    0.000  0.000  0.000
 244 PT 278  0.001  0.000 -0.000  0.000  0.000  0.000  0.000 -0.000  0.000
                    0.000  0.000  0.000
 245 PT 278  0.001  0.000 -0.000  0.000  0.000  0.000  0.000 -0.000  0.000
                    0.000  0.000  0.000
 246 PT 278  0.001  0.000 -0.000  0.000  0.000  0.000  0.000 -0.000  0.000
                    0.000  0.000  0.000
 247 PT 278  0.001  0.000 -0.000  0.000  0.000  0.000  0.000 -0.000  0.000
                    0.000  0.000  0.000
 248 PT 278  0.001  0.000 -0.000  0.000  0.000  0.000  0.000 -0.000  0.000
                    0.000  0.000  0.000
 249 PT 278  0.001  0.000 -0.000  0.000  0.000  0.000  0.000 -0.000  0.000
                    0.000  0.000  0.000
 250 PT 278  0.001  0.000 -0.000  0.000  0.000  0.000  0.000 -0.000  0.000
                    0.000  0.000  0.000
 251 PT 278  0.001  0.000 -0.000  0.000  0.000  0.000  0.000 -0.000  0.000
                    0.000  0.000  0.000
 252 PT 278  0.001  0.000 -0.000  0.000  0.000  0.000  0.000 -0.000  0.000
                    0.000  0.000  0.000
 253 PT 278  0.001  0.000 -0.000  0.000  0.000  0.000  0.000 -0.000  0.000
                    0.000  0.000  0.000
 254 PT 278  0.001  0.000 -0.000  0.000  0.000  0.000  0.000 -0.000  0.000
                    0.000  0.000  0.000
 255 PT 278  0.001  0.000 -0.000  0.000  0.000  0.000  0.000 -0.000  0.000
                    0.000  0.000  0.000
 256 PT 278  0.001  0.000 -0.000  0.000  0.000  0.000  0.000 -0.000  0.000
                    0.000  0.000  0.000
 257 PT 278  0.001  0.000 -0.000  0.000  0.000  0.000  0.000 -0.000  0.000
                    0.000  0.000  0.000
 258 PT 278  0.001  0.000 -0.000  0.000  0.000  0.000  0.000 -0.000  0.000
                    0.000  0.000  0.000
 259 PT 278  0.001  0.000 -0.000  0.000  0.000  0.000  0.000 -0.000  0.000
                    0.000  0.000  0.000
 260 PT 278  0.001  0.000 -0.000  0.000  0.000  0.000  0.000 -0.000  0.000
                    0.000  0.000  0.000
 261 PT 278  0.001  0.000 -0.000  0.000  0.000  0.000  0.000 -0.000  0.000
                    0.000  0.000  0.000
 262 PT 278  0.001  0.000 -0.000  0.000  0.000  0.000  0.000 -0.000  0.000
                    0.000  0.000  0.000
 263 PT 278  0.001  0.000 -0.000  0.000  0.000  0.000  0.000 -0.000  0.000
                    0.000  0.000  0.000
 264 PT 278  0.001  0.000 -0.000  0.000  0.000  0.000  0.000 -0.000  0.000
                    0.000  0.000  0.000
 265 CL  17  0.000  0.000 -0.000  0.000 -0.000  0.000  0.000  0.000  0.000
 266 CL  17  0.000  0.000 -0.000  0.000 -0.000  0.000  0.000  0.000  0.000
 267 CL  17  0.000  0.000 -0.000  0.000 -0.000  0.000  0.000  0.000  0.000
 268 CL  17  0.000  0.000 -0.000  0.000 -0.000  0.000  0.000  0.000  0.000
 269 CL  17  0.000  0.000 -0.000  0.000 -0.000  0.000  0.000  0.000  0.000
 270 CL  17  0.000  0.000 -0.000  0.000 -0.000  0.000  0.000  0.000  0.000
 271 CL  17  0.000  0.000 -0.000  0.000 -0.000  0.000  0.000  0.000  0.000
 272 CL  17  0.000  0.000 -0.000  0.000 -0.000  0.000  0.000  0.000  0.000
 273 CL  17  0.000  0.000 -0.000  0.000 -0.000  0.000  0.000  0.000  0.000
 274 CL  17  0.000  0.000 -0.000  0.000 -0.000  0.000  0.000  0.000  0.000
 275 CL  17  0.000  0.000 -0.000  0.000 -0.000  0.000  0.000  0.000  0.000
 276 CL  17  0.000  0.000 -0.000  0.000 -0.000  0.000  0.000  0.000  0.000
 277 CL  17  0.000  0.000 -0.000  0.000 -0.000  0.000  0.000  0.000  0.000
 278 CL  17  0.000  0.000 -0.000  0.000 -0.000  0.000  0.000  0.000  0.000
 279 CL  17  0.000  0.000 -0.000  0.000 -0.000  0.000  0.000  0.000  0.000
 280 CL  17  0.000  0.000 -0.000  0.000 -0.000  0.000  0.000  0.000  0.000
 281 CL  17  0.000  0.000 -0.000  0.000 -0.000  0.000  0.000  0.000  0.000
 282 CL  17  0.000  0.000 -0.000  0.000 -0.000  0.000  0.000  0.000  0.000
 283 CL  17  0.000  0.000 -0.000  0.000 -0.000  0.000  0.000  0.000  0.000
 284 CL  17  0.000  0.000 -0.000  0.000 -0.000  0.000  0.000  0.000  0.000
 285 CL  17  0.000  0.000 -0.000  0.000 -0.000  0.000  0.000  0.000  0.000
 286 CL  17  0.000  0.000 -0.000  0.000 -0.000  0.000  0.000  0.000  0.000
 287 CL  17  0.000  0.000 -0.000  0.000 -0.000  0.000  0.000  0.000  0.000
 288 CL  17  0.000  0.000 -0.000  0.000 -0.000  0.000  0.000  0.000  0.000
 289 C    6 -0.000 -0.000 -0.000 -0.000 -0.000 -0.000  0.000
 290 C    6 -0.000 -0.000 -0.000 -0.000 -0.000 -0.000  0.000
 291 C    6 -0.000 -0.000 -0.000 -0.000 -0.000 -0.000  0.000
 292 C    6 -0.000 -0.000 -0.000 -0.000 -0.000 -0.000  0.000
 293 C    6 -0.000 -0.000 -0.000 -0.000 -0.000 -0.000  0.000
 294 C    6 -0.000 -0.000 -0.000 -0.000 -0.000 -0.000  0.000

 OVERLAP POPULATION CONDENSED TO ATOMS FOR FIRST   6 NEIGHBORS

 ATOM A   1 C    ATOM B     CELL      R(AB)/AU R(AB)/ANG    OVPOP(AB)
                 25 H    (  0  0  0)     2.061     1.091    -0.000
                193 N    (  0  0  0)     2.520     1.334     0.000
                 49 C    (  0  0  0)     2.652     1.403     0.000
                145 C    (  0  0  0)     4.368     2.311    -0.000
                 73 C    (  0  0  0)     4.544     2.405    -0.000
                289 C    (  0  0  0)     4.881     2.583     0.000

 ATOM A  25 H    ATOM B     CELL      R(AB)/AU R(AB)/ANG    OVPOP(AB)
                  1 C    (  0  0  0)     2.061     1.091    -0.000
                193 N    (  0  0  0)     3.882     2.054     0.000
                 49 C    (  0  0  0)     4.158     2.201    -0.000
                117 H    (  0  0  0)     4.862     2.573    -0.000
                 69 C    (  0  0  0)     5.100     2.699     0.000
                 93 C    (  0  0  0)     5.214     2.759    -0.000

 ATOM A  49 C    ATOM B     CELL      R(AB)/AU R(AB)/ANG    OVPOP(AB)
                  1 C    (  0  0  0)     2.652     1.403     0.000
                 73 C    (  0  0  0)     2.672     1.414    -0.000
                289 C    (  0  0  0)     2.885     1.527     0.000
                 25 H    (  0  0  0)     4.158     2.201    -0.000
                 97 H    (  0  0  0)     4.178     2.211    -0.000
                193 N    (  0  0  0)     4.505     2.384    -0.000

 ATOM A  73 C    ATOM B     CELL      R(AB)/AU R(AB)/ANG    OVPOP(AB)
                 97 H    (  0  0  0)     2.065     1.093    -0.000
                121 N    (  0  0  0)     2.501     1.324     0.000
                 49 C    (  0  0  0)     2.672     1.414    -0.000
                145 C    (  0  0  0)     4.350     2.302    -0.000
                  1 C    (  0  0  0)     4.544     2.405    -0.000
                289 C    (  0  0  0)     4.752     2.515     0.000

 ATOM A  97 H    ATOM B     CELL      R(AB)/AU R(AB)/ANG    OVPOP(AB)
                 73 C    (  0  0  0)     2.065     1.093    -0.000
                121 N    (  0  0  0)     3.860     2.042     0.000
                 49 C    (  0  0  0)     4.178     2.211    -0.000
                 43 H    (  1  1  1)     4.862     2.573    -0.000
                 51 C    (  0  0  0)     4.992     2.642     0.000
                289 C    (  0  0  0)     5.283     2.796     0.000

 ATOM A 121 N    ATOM B     CELL      R(AB)/AU R(AB)/ANG    OVPOP(AB)
                 73 C    (  0  0  0)     2.501     1.324     0.000
                145 C    (  0  0  0)     2.612     1.382    -0.000
                257 PT   (  0  0  0)     3.855     2.040    -0.000
                 97 H    (  0  0  0)     3.860     2.042     0.000
                169 C    (  0  0  0)     4.471     2.366    -0.000
                 49 C    (  0  0  0)     4.519     2.391    -0.000

 ATOM A 145 C    ATOM B     CELL      R(AB)/AU R(AB)/ANG    OVPOP(AB)
                193 N    (  0  0  0)     2.607     1.379    -0.000
                121 N    (  0  0  0)     2.612     1.382    -0.000
                169 C    (  0  0  0)     2.625     1.389     0.000
                 73 C    (  0  0  0)     4.350     2.302    -0.000
                  1 C    (  0  0  0)     4.368     2.311    -0.000
                221 N    (  0  0  0)     4.412     2.335    -0.000

 ATOM A 169 C    ATOM B     CELL      R(AB)/AU R(AB)/ANG    OVPOP(AB)
                217 N    (  0  0  0)     2.561     1.355    -0.000
                221 N    (  0  0  0)     2.563     1.356    -0.000
                145 C    (  0  0  0)     2.625     1.389     0.000
                173 C    (  0  0  0)     4.337     2.295    -0.000
                121 N    (  0  0  0)     4.471     2.366    -0.000
                193 N    (  0  0  0)     4.490     2.376    -0.000

 ATOM A 193 N    ATOM B     CELL      R(AB)/AU R(AB)/ANG    OVPOP(AB)
                  1 C    (  0  0  0)     2.520     1.334     0.000
                145 C    (  0  0  0)     2.607     1.379    -0.000
                 25 H    (  0  0  0)     3.882     2.054     0.000
                253 PT   (  0  0  0)     3.883     2.055    -0.000
                169 C    (  0  0  0)     4.490     2.376    -0.000
                 49 C    (  0  0  0)     4.505     2.384    -0.000

 ATOM A 217 N    ATOM B     CELL      R(AB)/AU R(AB)/ANG    OVPOP(AB)
                169 C    (  0  0  0)     2.561     1.355    -0.000
                174 C    (  0  0  0)     2.563     1.356    -0.000
                257 PT   (  0  0  0)     3.738     1.978    -0.000
                150 C    (  0  0  0)     4.412     2.335    -0.000
                145 C    (  0  0  0)     4.422     2.340    -0.000
                221 N    (  0  0  0)     4.501     2.382    -0.000

 ATOM A 241 PT   ATOM B     CELL      R(AB)/AU R(AB)/ANG    OVPOP(AB)
                233 N    (  0  0  0)     3.738     1.978    -0.000
                137 N    (  0  0  0)     3.855     2.040    -0.000
                205 N    (  0  0  0)     3.883     2.055    -0.000
                265 CL   (  0  0  0)     4.342     2.298    -0.000
                181 C    (  0  0  0)     5.250     2.778     0.000
                157 C    (  0  0  0)     5.259     2.783     0.000

 ATOM A 265 CL   ATOM B     CELL      R(AB)/AU R(AB)/ANG    OVPOP(AB)
                241 PT   (  0  0  0)     4.342     2.298    -0.000
                113 H    (  0  0  0)     5.461     2.890    -0.000
                 37 H    (  0  0  0)     5.807     3.073    -0.000
                137 N    (  0  0  0)     6.138     3.248    -0.000
                205 N    (  0  0  0)     6.238     3.301    -0.000
                 89 C    (  0  0  0)     6.578     3.481    -0.000

 ATOM A 289 C    ATOM B     CELL      R(AB)/AU R(AB)/ANG    OVPOP(AB)
                 49 C    (  0  0  0)     2.885     1.527     0.000
                 73 C    (  0  0  0)     4.752     2.515     0.000
                  1 C    (  0  0  0)     4.881     2.583     0.000
                 97 H    (  0  0  0)     5.283     2.796     0.000
                 25 H    (  0  0  0)     5.505     2.913     0.000
                121 N    (  0  0  0)     7.001     3.705    -0.000
 EIGENVECTORS IN FORTRAN UNIT  8
 TTTTTTTTTTTTTTTTTTTTTTTTTTTTTT END         TELAPSE      363.27 TCPU      358.84
 MMMMM END         USED MEM(MB)     39.94 MAX MEM    217.83 TOT MEM       958.48
 EEEEEEEEEE TERMINATION  DATE 28 04 2025 TIME 16:44:05.1
NODE    0 CPU TIME =       358.844
NODE    1 CPU TIME =       358.536
NODE    2 CPU TIME =       358.731
NODE    3 CPU TIME =       358.634
NODE    4 CPU TIME =       358.674
NODE    5 CPU TIME =       358.842
NODE    6 CPU TIME =       358.844
NODE    7 CPU TIME =       359.026
NODE    8 CPU TIME =       358.915
NODE    9 CPU TIME =       357.500
NODE   10 CPU TIME =       359.072
NODE   11 CPU TIME =       359.249
NODE   12 CPU TIME =       358.859
NODE   13 CPU TIME =       359.100
NODE   14 CPU TIME =       359.351
NODE   15 CPU TIME =       359.372
NODE   16 CPU TIME =       359.167
NODE   17 CPU TIME =       359.041
NODE   18 CPU TIME =       358.032
NODE   19 CPU TIME =       359.041
NODE   20 CPU TIME =       359.300
NODE   21 CPU TIME =       359.021
NODE   22 CPU TIME =       358.843
NODE   23 CPU TIME =       358.934
    TOTAL CPU TIME =      8612.928
