 PROCESS            4  OF           32  WORKING
 PROCESS            5  OF           32  WORKING
 PROCESS            6  OF           32  WORKING
 PROCESS            9  OF           32  WORKING
 PROCESS           16  OF           32  WORKING
 PROCESS           11  OF           32  WORKING
 PROCESS           17  OF           32  WORKING
 PROCESS           13  OF           32  WORKING
 PROCESS           18  OF           32  WORKING
 PROCESS           14  OF           32  WORKING
 PROCESS           19  OF           32  WORKING
 PROCESS           15  OF           32  WORKING
 PROCESS           20  OF           32  WORKING
 PROCESS            0  OF           32  WORKING
 PROCESS           21  OF           32  WORKING
 PROCESS            1  OF           32  WORKING
 PROCESS           22  OF           32  WORKING
 PROCESS            2  OF           32  WORKING
 PROCESS           23  OF           32  WORKING
 PROCESS            3  OF           32  WORKING
 PROCESS           24  OF           32  WORKING
 PROCESS            7  OF           32  WORKING
 PROCESS           25  OF           32  WORKING
 PROCESS            8  OF           32  WORKING
 PROCESS           26  OF           32  WORKING
 PROCESS           10  OF           32  WORKING
 PROCESS           27  OF           32  WORKING
 PROCESS           29  OF           32  WORKING
 PROCESS           30  OF           32  WORKING
 PROCESS           31  OF           32  WORKING
 PROCESS           12  OF           32  WORKING
 PROCESS           28  OF           32  WORKING

         
 *******************************************************************************
 *                                                                             *
 *                               CRYSTAL17                                     *
 *                      public : 1.0.2 - March 1st, 2018                       *
 *                       HTTP://WWW.CRYSTAL.UNITO.IT                           *
 *                                                                             *
 *                              MAIN AUTHORS                                   *
 *                                                                             *
 *  R. DOVESI(1,11), V.R. SAUNDERS(2), C. ROETTI(1,11), R. ORLANDO(1,11),      *
 *  C.M. ZICOVICH-WILSON(1,3), F. PASCALE(4), B. CIVALLERI(1,11),              *
 *  K. DOLL(5), N.M. HARRISON(2,6), I.J. BUSH(7), Ph. D'ARCO(8),               *
 *  M. LLUNELL(9), M. CAUSA'(10), Y. NOEL(8), L. MASCHIO(1,11), A. ERBA(1,11)  *
 *  M. RE'RAT(14), S. CASASSA(1,11)                                            *
 *                                                                             *
 *        CONTRIBUTIONS TO THE CODE HAVE ALSO BEEN GIVEN BY                    *
 *                                                                             *
 *  M. FERRABONE(1,11), M. DE LA PIERRE(1,11), M. FERRERO(1,11),               *
 *  J. BAIMA(1,11), E. ALBANESE(1,11), M.F. PEINTINGER(12), R. BAST(13),       *
 *  B. KIRTMAN(15), V. LACIVITA(1,11), R. DEMICHELIS(1,16)                     *
 *  G. BRANDEBURG(17), S. SALUSTRO(1,11), G. SANSONE(1,11)                     *
 *  M.T. RUGGIERO(18)                                                          *
 *                                                                             *
 * (1) THEORETICAL CHEMISTRY GROUP - UNIVERSITA' DI TORINO - TORINO (ITALY)    *
 * (2) COMPUTATIONAL SCIENCE & ENGINEERING DEPARTMENT - STFC DARESBURY (UK)    *
 * (3) UNIVERSIDAD AUTONOMA DEL ESTADO DE MORELOS - CUERNAVACA (MEXICO)        *
 * (4) UNIVERSITE' DE LORRAINE - NANCY (FRANCE)                                *
 * (5) UNIVERSITAET STUTTGART- STUTTGART (GERMANY)                             *
 * (6) IMPERIAL COLLEGE - LONDON (UK)                                          *
 * (7) OXFORD E-RESEARCH CENTRE - OXFORD (UK)                                  *
 * (8) UPMC - SORBONNE UNIVERSITES - PARIS (FRANCE)                            *
 * (9) UNIVERSIDAD DE BARCELONA - BARCELONA (SPAIN)                            *
 *(10) UNIVERSITA' DI NAPOLI "FEDERICO II" - NAPOLI (ITALY)                    *
 *(11) NIS - NANOSTRUCTURED INTERFACES AND SURFACES - TORINO (ITALY)           *
 *(12) MPI FUER CHEMISCHE ENERGIEKONVERSION - MUELHEIM AN DER RUHR (GERMANY)   *
 *(13) UNIVERSITY OF TROMSO - TROMSO (NORWAY)                                  *
 *(14) UNIVERSITE' DE PAU ET DES PAYS DE L'ADOUR - PAU (FRANCE)                *
 *(15) UNIVERSITY OF CALIFORNIA SANTA BARBARA - SANTA BARBARA (USA)            *
 *(16) CURTIN UNIVERSITY - PERTH (AUSTRALIA)                                   *
 *(17) UNIVERSITY COLLEGE LONDON - LONDON (UK)                                 *
 *(18) CAMBRIDGE UNIVERSITY - CAMBRIDGE (UK)                                   *
 *                                                                             *
 *******************************************************************************
 EEEEEEEEEE STARTING  DATE 05 12 2024 TIME 15:01:11.9
 tryCOF102_sym                                                                   

 CRYSTAL CALCULATION
 (INPUT ACCORDING TO THE INTERNATIONAL TABLES FOR X-RAY CRYSTALLOGRAPHY)
 CRYSTAL FAMILY                       :  CUBIC       
 CRYSTAL CLASS  (GROTH - 1921)        :  CUBIC HEXAKISTETRAHEDRAL             

 SPACE GROUP (NONCENTROSYMMETRIC)     :  I -4 3 D        

 LATTICE PARAMETERS  (ANGSTROMS AND DEGREES) - CONVENTIONAL CELL
        A           B           C        ALPHA        BETA       GAMMA
    26.09133    26.09133    26.09133    90.00000    90.00000    90.00000


 NUMBER OF IRREDUCIBLE ATOMS IN THE CONVENTIONAL CELL:   12

 INPUT COORDINATES

 ATOM AT. N.              COORDINATES
   1   6     3.450746639347E-01  7.964867930142E-02  1.976507795039E-01
   2   1     3.756240159042E-01  7.363025987553E-02  1.692560125852E-01
   3   6     3.400121755958E-01  4.594942324950E-02  2.396278382902E-01
   4   6     2.975183906538E-01  5.571134569822E-02  2.720629788162E-01
   5   1     2.892185486902E-01  2.918649071917E-02  3.038554270614E-01
   6   7     2.654077033533E-01  9.486837092351E-02  2.657975866578E-01
   7   6     2.753038026360E-01  1.257701894231E-01  2.243885872934E-01
   8   6     2.420078133269E-01  1.678956835219E-01  2.168020908062E-01
   9   7     3.137409944642E-01  1.192525953970E-01  1.892788599605E-01
  10   7     2.013442723830E-01  1.768084187355E-01  2.489410054626E-01
  11   1     1.950199848386E-01  1.518977780488E-01  2.787678607050E-01
  12   6     3.750000000000E-01 -6.859416321036E-17  2.500000000000E-01

 *******************************************************************************

 << INFORMATION >>: FROM NOW ON, ALL COORDINATES REFER TO THE PRIMITIVE CELL

 *******************************************************************************

 LATTICE PARAMETERS  (ANGSTROMS AND DEGREES) - PRIMITIVE CELL
       A          B          C        ALPHA      BETA     GAMMA        VOLUME
   22.59576   22.59576   22.59576   109.47122 109.47122 109.47122   8880.935797

 COORDINATES OF THE EQUIVALENT ATOMS (FRACTIONAL UNITS)

 N. ATOM EQUIV AT. N.          X                  Y                  Z

   1   1   1    6 C     2.77299458805E-01 -4.57274556561E-01  4.24723343236E-01
   2   1   2    6 C    -3.81997899798E-01 -1.47423884431E-01  7.52766567639E-02
   3   1   3    6 C     2.22700541195E-01 -3.52576115569E-01  2.65425984633E-01
   4   1   4    6 C    -1.18002100202E-01 -4.27254434386E-02  2.34574015367E-01
   5   1   5    6 C     4.24723343236E-01  2.77299458805E-01 -4.57274556561E-01
   6   1   6    6 C    -4.57274556561E-01  4.24723343236E-01  2.77299458805E-01
   7   1   7    6 C     2.34574015367E-01 -1.18002100202E-01 -4.27254434386E-02
   8   1   8    6 C    -1.47423884431E-01  7.52766567639E-02 -3.81997899798E-01
   9   1   9    6 C     7.52766567639E-02 -3.81997899798E-01 -1.47423884431E-01
  10   1  10    6 C    -3.52576115569E-01  2.65425984633E-01  2.22700541195E-01
  11   1  11    6 C     2.65425984633E-01  2.22700541195E-01 -3.52576115569E-01
  12   1  12    6 C    -4.27254434386E-02  2.34574015367E-01 -1.18002100202E-01
  13   1  13    6 C     4.27254434386E-02 -2.22700541195E-01 -7.52766567639E-02
  14   1  14    6 C     3.52576115569E-01  1.18002100202E-01 -4.24723343236E-01
  15   1  15    6 C     1.47423884431E-01 -2.77299458805E-01 -2.34574015367E-01
  16   1  16    6 C     4.57274556561E-01  3.81997899798E-01 -2.65425984633E-01
  17   1  17    6 C    -2.22700541195E-01 -7.52766567639E-02  4.27254434386E-02
  18   1  18    6 C    -7.52766567639E-02  4.27254434386E-02 -2.22700541195E-01
  19   1  19    6 C     3.81997899798E-01 -2.65425984633E-01  4.57274556561E-01
  20   1  20    6 C    -4.24723343236E-01  3.52576115569E-01  1.18002100202E-01
  21   1  21    6 C     1.18002100202E-01 -4.24723343236E-01  3.52576115569E-01
  22   1  22    6 C    -2.34574015367E-01  1.47423884431E-01 -2.77299458805E-01
  23   1  23    6 C    -2.77299458805E-01 -2.34574015367E-01  1.47423884431E-01
  24   1  24    6 C    -2.65425984633E-01  4.57274556561E-01  3.81997899798E-01

  25   2   1    1 H     2.42886272461E-01 -4.55119971511E-01  4.49254275780E-01
  26   2   2    1 H    -4.04374247290E-01 -2.06368003319E-01  5.07457242203E-02
  27   2   3    1 H     2.57113727539E-01 -2.93631996681E-01  3.01993756029E-01
  28   2   4    1 H    -9.56257527097E-02 -4.48800284894E-02  1.98006243971E-01
  29   2   5    1 H     4.49254275780E-01  2.42886272461E-01 -4.55119971511E-01
  30   2   6    1 H    -4.55119971511E-01  4.49254275780E-01  2.42886272461E-01
  31   2   7    1 H     1.98006243971E-01 -9.56257527097E-02 -4.48800284894E-02
  32   2   8    1 H    -2.06368003319E-01  5.07457242203E-02 -4.04374247290E-01
  33   2   9    1 H     5.07457242203E-02 -4.04374247290E-01 -2.06368003319E-01
  34   2  10    1 H    -2.93631996681E-01  3.01993756029E-01  2.57113727539E-01
  35   2  11    1 H     3.01993756029E-01  2.57113727539E-01 -2.93631996681E-01
  36   2  12    1 H    -4.48800284894E-02  1.98006243971E-01 -9.56257527097E-02
  37   2  13    1 H     4.48800284894E-02 -2.57113727539E-01 -5.07457242203E-02
  38   2  14    1 H     2.93631996681E-01  9.56257527097E-02 -4.49254275780E-01
  39   2  15    1 H     2.06368003319E-01 -2.42886272461E-01 -1.98006243971E-01
  40   2  16    1 H     4.55119971511E-01  4.04374247290E-01 -3.01993756029E-01
  41   2  17    1 H    -2.57113727539E-01 -5.07457242203E-02  4.48800284894E-02
  42   2  18    1 H    -5.07457242203E-02  4.48800284894E-02 -2.57113727539E-01
  43   2  19    1 H     4.04374247290E-01 -3.01993756029E-01  4.55119971511E-01
  44   2  20    1 H    -4.49254275780E-01  2.93631996681E-01  9.56257527097E-02
  45   2  21    1 H     9.56257527097E-02 -4.49254275780E-01  2.93631996681E-01
  46   2  22    1 H    -1.98006243971E-01  2.06368003319E-01 -2.42886272461E-01
  47   2  23    1 H    -2.42886272461E-01 -1.98006243971E-01  2.06368003319E-01
  48   2  24    1 H    -3.01993756029E-01  4.55119971511E-01  4.04374247290E-01

  49   3   1    6 C     2.85577261540E-01 -4.20359986114E-01  3.85961598845E-01
  50   3   2    6 C    -3.06321584959E-01 -1.00384337306E-01  1.14038401155E-01
  51   3   3    6 C     2.14422738460E-01 -3.99615662694E-01  2.94062752346E-01
  52   3   4    6 C    -1.93678415041E-01 -7.96400138860E-02  2.05937247654E-01
  53   3   5    6 C     3.85961598845E-01  2.85577261540E-01 -4.20359986114E-01
  54   3   6    6 C    -4.20359986114E-01  3.85961598845E-01  2.85577261540E-01
  55   3   7    6 C     2.05937247654E-01 -1.93678415041E-01 -7.96400138860E-02
  56   3   8    6 C    -1.00384337306E-01  1.14038401155E-01 -3.06321584959E-01
  57   3   9    6 C     1.14038401155E-01 -3.06321584959E-01 -1.00384337306E-01
  58   3  10    6 C    -3.99615662694E-01  2.94062752346E-01  2.14422738460E-01
  59   3  11    6 C     2.94062752346E-01  2.14422738460E-01 -3.99615662694E-01
  60   3  12    6 C    -7.96400138860E-02  2.05937247654E-01 -1.93678415041E-01
  61   3  13    6 C     7.96400138860E-02 -2.14422738460E-01 -1.14038401155E-01
  62   3  14    6 C     3.99615662694E-01  1.93678415041E-01 -3.85961598845E-01
  63   3  15    6 C     1.00384337306E-01 -2.85577261540E-01 -2.05937247654E-01
  64   3  16    6 C     4.20359986114E-01  3.06321584959E-01 -2.94062752346E-01
  65   3  17    6 C    -2.14422738460E-01 -1.14038401155E-01  7.96400138860E-02
  66   3  18    6 C    -1.14038401155E-01  7.96400138860E-02 -2.14422738460E-01
  67   3  19    6 C     3.06321584959E-01 -2.94062752346E-01  4.20359986114E-01
  68   3  20    6 C    -3.85961598845E-01  3.99615662694E-01  1.93678415041E-01
  69   3  21    6 C     1.93678415041E-01 -3.85961598845E-01  3.99615662694E-01
  70   3  22    6 C    -2.05937247654E-01  1.00384337306E-01 -2.85577261540E-01
  71   3  23    6 C    -2.85577261540E-01 -2.05937247654E-01  1.00384337306E-01
  72   3  24    6 C    -2.94062752346E-01  4.20359986114E-01  3.06321584959E-01

  73   4   1    6 C     3.27774324514E-01 -4.30418630530E-01  3.53229736352E-01
  74   4   2    6 C    -2.83648366882E-01 -2.54554118376E-02  1.46770263648E-01
  75   4   3    6 C     1.72225675486E-01 -4.74544588162E-01  2.41807044956E-01
  76   4   4    6 C    -2.16351633118E-01 -6.95813694700E-02  2.58192955044E-01
  77   4   5    6 C     3.53229736352E-01  3.27774324514E-01 -4.30418630530E-01
  78   4   6    6 C    -4.30418630530E-01  3.53229736352E-01  3.27774324514E-01
  79   4   7    6 C     2.58192955044E-01 -2.16351633118E-01 -6.95813694700E-02
  80   4   8    6 C    -2.54554118376E-02  1.46770263648E-01 -2.83648366882E-01
  81   4   9    6 C     1.46770263648E-01 -2.83648366882E-01 -2.54554118376E-02
  82   4  10    6 C    -4.74544588162E-01  2.41807044956E-01  1.72225675486E-01
  83   4  11    6 C     2.41807044956E-01  1.72225675486E-01 -4.74544588162E-01
  84   4  12    6 C    -6.95813694700E-02  2.58192955044E-01 -2.16351633118E-01
  85   4  13    6 C     6.95813694700E-02 -1.72225675486E-01 -1.46770263648E-01
  86   4  14    6 C     4.74544588162E-01  2.16351633118E-01 -3.53229736352E-01
  87   4  15    6 C     2.54554118376E-02 -3.27774324514E-01 -2.58192955044E-01
  88   4  16    6 C     4.30418630530E-01  2.83648366882E-01 -2.41807044956E-01
  89   4  17    6 C    -1.72225675486E-01 -1.46770263648E-01  6.95813694700E-02
  90   4  18    6 C    -1.46770263648E-01  6.95813694700E-02 -1.72225675486E-01
  91   4  19    6 C     2.83648366882E-01 -2.41807044956E-01  4.30418630530E-01
  92   4  20    6 C    -3.53229736352E-01  4.74544588162E-01  2.16351633118E-01
  93   4  21    6 C     2.16351633118E-01 -3.53229736352E-01  4.74544588162E-01
  94   4  22    6 C    -2.58192955044E-01  2.54554118376E-02 -3.27774324514E-01
  95   4  23    6 C    -3.27774324514E-01 -2.58192955044E-01  2.54554118376E-02
  96   4  24    6 C    -2.41807044956E-01  4.30418630530E-01  2.83648366882E-01

  97   5   1    1 H     3.33041917781E-01 -4.06926024248E-01  3.18405039409E-01
  98   5   2    1 H    -2.25331063658E-01  1.46368783712E-02  1.81594960591E-01
  99   5   3    1 H     1.66958082219E-01  4.85363121629E-01  2.60032057971E-01
 100   5   4    1 H    -2.74668936342E-01 -9.30739757516E-02  2.39967942029E-01
 101   5   5    1 H     3.18405039409E-01  3.33041917781E-01 -4.06926024248E-01
 102   5   6    1 H    -4.06926024248E-01  3.18405039409E-01  3.33041917781E-01
 103   5   7    1 H     2.39967942029E-01 -2.74668936342E-01 -9.30739757516E-02
 104   5   8    1 H     1.46368783712E-02  1.81594960591E-01 -2.25331063658E-01
 105   5   9    1 H     1.81594960591E-01 -2.25331063658E-01  1.46368783712E-02
 106   5  10    1 H     4.85363121629E-01  2.60032057971E-01  1.66958082219E-01
 107   5  11    1 H     2.60032057971E-01  1.66958082219E-01  4.85363121629E-01
 108   5  12    1 H    -9.30739757516E-02  2.39967942029E-01 -2.74668936342E-01
 109   5  13    1 H     9.30739757516E-02 -1.66958082219E-01 -1.81594960591E-01
 110   5  14    1 H    -4.85363121629E-01  2.74668936342E-01 -3.18405039409E-01
 111   5  15    1 H    -1.46368783712E-02 -3.33041917781E-01 -2.39967942029E-01
 112   5  16    1 H     4.06926024248E-01  2.25331063658E-01 -2.60032057971E-01
 113   5  17    1 H    -1.66958082219E-01 -1.81594960591E-01  9.30739757516E-02
 114   5  18    1 H    -1.81594960591E-01  9.30739757516E-02 -1.66958082219E-01
 115   5  19    1 H     2.25331063658E-01 -2.60032057971E-01  4.06926024248E-01
 116   5  20    1 H    -3.18405039409E-01 -4.85363121629E-01  2.74668936342E-01
 117   5  21    1 H     2.74668936342E-01 -3.18405039409E-01 -4.85363121629E-01
 118   5  22    1 H    -2.39967942029E-01 -1.46368783712E-02 -3.33041917781E-01
 119   5  23    1 H    -3.33041917781E-01 -2.39967942029E-01 -1.46368783712E-02
 120   5  24    1 H    -2.60032057971E-01  4.06926024248E-01  2.25331063658E-01

 121   6   1    7 N     3.60665957581E-01 -4.68794709989E-01  3.60276074277E-01
 122   6   2    7 N    -3.29070784266E-01  3.89883304500E-04  1.39723925723E-01
 123   6   3    7 N     1.39334042419E-01  4.99610116695E-01  1.70539332430E-01
 124   6   4    7 N    -1.70929215734E-01 -3.12052900111E-02  3.29460667570E-01
 125   6   5    7 N     3.60276074277E-01  3.60665957581E-01 -4.68794709989E-01
 126   6   6    7 N    -4.68794709989E-01  3.60276074277E-01  3.60665957581E-01
 127   6   7    7 N     3.29460667570E-01 -1.70929215734E-01 -3.12052900111E-02
 128   6   8    7 N     3.89883304500E-04  1.39723925723E-01 -3.29070784266E-01
 129   6   9    7 N     1.39723925723E-01 -3.29070784266E-01  3.89883304500E-04
 130   6  10    7 N     4.99610116695E-01  1.70539332430E-01  1.39334042419E-01
 131   6  11    7 N     1.70539332430E-01  1.39334042419E-01  4.99610116695E-01
 132   6  12    7 N    -3.12052900111E-02  3.29460667570E-01 -1.70929215734E-01
 133   6  13    7 N     3.12052900111E-02 -1.39334042419E-01 -1.39723925723E-01
 134   6  14    7 N    -4.99610116696E-01  1.70929215734E-01 -3.60276074277E-01
 135   6  15    7 N    -3.89883304500E-04 -3.60665957581E-01 -3.29460667570E-01
 136   6  16    7 N     4.68794709989E-01  3.29070784266E-01 -1.70539332430E-01
 137   6  17    7 N    -1.39334042419E-01 -1.39723925723E-01  3.12052900111E-02
 138   6  18    7 N    -1.39723925723E-01  3.12052900111E-02 -1.39334042419E-01
 139   6  19    7 N     3.29070784266E-01 -1.70539332430E-01  4.68794709989E-01
 140   6  20    7 N    -3.60276074277E-01 -4.99610116696E-01  1.70929215734E-01
 141   6  21    7 N     1.70929215734E-01 -3.60276074277E-01 -4.99610116696E-01
 142   6  22    7 N    -3.29460667570E-01 -3.89883304500E-04 -3.60665957581E-01
 143   6  23    7 N    -3.60665957581E-01 -3.29460667570E-01 -3.89883304500E-04
 144   6  24    7 N    -1.70539332430E-01  4.68794709989E-01  3.29070784266E-01

 145   7   1    6 C     3.50158776716E-01  4.99692389929E-01  4.01073992059E-01
 146   7   2    6 C    -4.01381602130E-01 -5.09152153426E-02  9.89260079409E-02
 147   7   3    6 C     1.49841223283E-01 -4.49084784657E-01  1.49533613213E-01
 148   7   4    6 C    -9.86183978703E-02  3.07610070600E-04  3.50466386787E-01
 149   7   5    6 C     4.01073992059E-01  3.50158776716E-01  4.99692389929E-01
 150   7   6    6 C     4.99692389929E-01  4.01073992059E-01  3.50158776716E-01
 151   7   7    6 C     3.50466386787E-01 -9.86183978703E-02  3.07610070600E-04
 152   7   8    6 C    -5.09152153426E-02  9.89260079409E-02 -4.01381602130E-01
 153   7   9    6 C     9.89260079409E-02 -4.01381602130E-01 -5.09152153426E-02
 154   7  10    6 C    -4.49084784657E-01  1.49533613213E-01  1.49841223283E-01
 155   7  11    6 C     1.49533613213E-01  1.49841223283E-01 -4.49084784657E-01
 156   7  12    6 C     3.07610070600E-04  3.50466386787E-01 -9.86183978703E-02
 157   7  13    6 C    -3.07610070600E-04 -1.49841223284E-01 -9.89260079409E-02
 158   7  14    6 C     4.49084784657E-01  9.86183978703E-02 -4.01073992059E-01
 159   7  15    6 C     5.09152153426E-02 -3.50158776716E-01 -3.50466386787E-01
 160   7  16    6 C    -4.99692389929E-01  4.01381602130E-01 -1.49533613213E-01
 161   7  17    6 C    -1.49841223284E-01 -9.89260079409E-02 -3.07610070600E-04
 162   7  18    6 C    -9.89260079409E-02 -3.07610070600E-04 -1.49841223284E-01
 163   7  19    6 C     4.01381602130E-01 -1.49533613213E-01 -4.99692389929E-01
 164   7  20    6 C    -4.01073992059E-01  4.49084784657E-01  9.86183978703E-02
 165   7  21    6 C     9.86183978703E-02 -4.01073992059E-01  4.49084784657E-01
 166   7  22    6 C    -3.50466386787E-01  5.09152153426E-02 -3.50158776716E-01
 167   7  23    6 C    -3.50158776716E-01 -3.50466386787E-01  5.09152153426E-02
 168   7  24    6 C    -1.49533613213E-01 -4.99692389929E-01  4.01381602130E-01

 169   8   1    6 C     3.84697774328E-01  4.58809904133E-01  4.09903496849E-01
 170   8   2    6 C    -4.51093592716E-01 -2.52057225207E-02  9.00965031512E-02
 171   8   3    6 C     1.15302225672E-01 -4.74794277479E-01  7.41121298050E-02
 172   8   4    6 C    -4.89064072843E-02  4.11900958669E-02  4.25887870195E-01
 173   8   5    6 C     4.09903496849E-01  3.84697774328E-01  4.58809904133E-01
 174   8   6    6 C     4.58809904133E-01  4.09903496849E-01  3.84697774328E-01
 175   8   7    6 C     4.25887870195E-01 -4.89064072843E-02  4.11900958669E-02
 176   8   8    6 C    -2.52057225207E-02  9.00965031512E-02 -4.51093592716E-01
 177   8   9    6 C     9.00965031512E-02 -4.51093592716E-01 -2.52057225207E-02
 178   8  10    6 C    -4.74794277479E-01  7.41121298050E-02  1.15302225672E-01
 179   8  11    6 C     7.41121298050E-02  1.15302225672E-01 -4.74794277479E-01
 180   8  12    6 C     4.11900958669E-02  4.25887870195E-01 -4.89064072843E-02
 181   8  13    6 C    -4.11900958669E-02 -1.15302225672E-01 -9.00965031512E-02
 182   8  14    6 C     4.74794277479E-01  4.89064072843E-02 -4.09903496849E-01
 183   8  15    6 C     2.52057225207E-02 -3.84697774328E-01 -4.25887870195E-01
 184   8  16    6 C    -4.58809904133E-01  4.51093592716E-01 -7.41121298050E-02
 185   8  17    6 C    -1.15302225672E-01 -9.00965031512E-02 -4.11900958669E-02
 186   8  18    6 C    -9.00965031512E-02 -4.11900958669E-02 -1.15302225672E-01
 187   8  19    6 C     4.51093592716E-01 -7.41121298050E-02 -4.58809904133E-01
 188   8  20    6 C    -4.09903496849E-01  4.74794277479E-01  4.89064072843E-02
 189   8  21    6 C     4.89064072843E-02 -4.09903496849E-01  4.74794277479E-01
 190   8  22    6 C    -4.25887870195E-01  2.52057225207E-02 -3.84697774328E-01
 191   8  23    6 C    -3.84697774328E-01 -4.25887870195E-01  2.52057225207E-02
 192   8  24    6 C    -7.41121298050E-02 -4.58809904133E-01  4.51093592716E-01

 193   9   1    7 N     3.08531455358E-01 -4.96980145575E-01  4.32993589861E-01
 194   9   2    7 N    -4.29973735436E-01 -1.24462134504E-01  6.70064101388E-02
 195   9   3    7 N     1.91468544643E-01 -3.75537865496E-01  1.94488399067E-01
 196   9   4    7 N    -7.00262645635E-02 -3.01985442470E-03  3.05511600933E-01
 197   9   5    7 N     4.32993589861E-01  3.08531455358E-01 -4.96980145575E-01
 198   9   6    7 N    -4.96980145575E-01  4.32993589861E-01  3.08531455358E-01
 199   9   7    7 N     3.05511600933E-01 -7.00262645635E-02 -3.01985442470E-03
 200   9   8    7 N    -1.24462134504E-01  6.70064101388E-02 -4.29973735436E-01
 201   9   9    7 N     6.70064101388E-02 -4.29973735436E-01 -1.24462134504E-01
 202   9  10    7 N    -3.75537865496E-01  1.94488399067E-01  1.91468544643E-01
 203   9  11    7 N     1.94488399067E-01  1.91468544643E-01 -3.75537865496E-01
 204   9  12    7 N    -3.01985442470E-03  3.05511600933E-01 -7.00262645635E-02
 205   9  13    7 N     3.01985442470E-03 -1.91468544642E-01 -6.70064101388E-02
 206   9  14    7 N     3.75537865496E-01  7.00262645635E-02 -4.32993589861E-01
 207   9  15    7 N     1.24462134504E-01 -3.08531455358E-01 -3.05511600933E-01
 208   9  16    7 N     4.96980145575E-01  4.29973735436E-01 -1.94488399067E-01
 209   9  17    7 N    -1.91468544642E-01 -6.70064101388E-02  3.01985442470E-03
 210   9  18    7 N    -6.70064101388E-02  3.01985442470E-03 -1.91468544642E-01
 211   9  19    7 N     4.29973735436E-01 -1.94488399067E-01  4.96980145575E-01
 212   9  20    7 N    -4.32993589861E-01  3.75537865496E-01  7.00262645635E-02
 213   9  21    7 N     7.00262645635E-02 -4.32993589861E-01  3.75537865496E-01
 214   9  22    7 N    -3.05511600933E-01  1.24462134504E-01 -3.08531455358E-01
 215   9  23    7 N    -3.08531455358E-01 -3.05511600933E-01  1.24462134504E-01
 216   9  24    7 N    -1.94488399067E-01  4.96980145575E-01  4.29973735436E-01

 217  10   1    7 N     4.25749424198E-01  4.50285277846E-01  3.78152691119E-01
 218  10   2    7 N    -4.27867413273E-01  4.75967330796E-02  1.21847308881E-01
 219  10   3    7 N     7.42505758019E-02  4.52403266920E-01  2.45358536475E-02
 220  10   4    7 N    -7.21325867271E-02  4.97147221544E-02  4.75464146353E-01
 221  10   5    7 N     3.78152691119E-01  4.25749424198E-01  4.50285277846E-01
 222  10   6    7 N     4.50285277846E-01  3.78152691119E-01  4.25749424198E-01
 223  10   7    7 N     4.75464146353E-01 -7.21325867271E-02  4.97147221544E-02
 224  10   8    7 N     4.75967330796E-02  1.21847308881E-01 -4.27867413273E-01
 225  10   9    7 N     1.21847308881E-01 -4.27867413273E-01  4.75967330796E-02
 226  10  10    7 N     4.52403266920E-01  2.45358536475E-02  7.42505758019E-02
 227  10  11    7 N     2.45358536475E-02  7.42505758019E-02  4.52403266920E-01
 228  10  12    7 N     4.97147221544E-02  4.75464146353E-01 -7.21325867271E-02
 229  10  13    7 N    -4.97147221544E-02 -7.42505758019E-02 -1.21847308881E-01
 230  10  14    7 N    -4.52403266920E-01  7.21325867271E-02 -3.78152691119E-01
 231  10  15    7 N    -4.75967330796E-02 -4.25749424198E-01 -4.75464146353E-01
 232  10  16    7 N    -4.50285277846E-01  4.27867413273E-01 -2.45358536475E-02
 233  10  17    7 N    -7.42505758019E-02 -1.21847308881E-01 -4.97147221544E-02
 234  10  18    7 N    -1.21847308881E-01 -4.97147221544E-02 -7.42505758019E-02
 235  10  19    7 N     4.27867413273E-01 -2.45358536475E-02 -4.50285277846E-01
 236  10  20    7 N    -3.78152691119E-01 -4.52403266920E-01  7.21325867271E-02
 237  10  21    7 N     7.21325867271E-02 -3.78152691119E-01 -4.52403266920E-01
 238  10  22    7 N    -4.75464146353E-01 -4.75967330796E-02 -4.25749424198E-01
 239  10  23    7 N    -4.25749424198E-01 -4.75464146353E-01 -4.75967330796E-02
 240  10  24    7 N    -2.45358536475E-02 -4.50285277846E-01  4.27867413273E-01

 241  11   1    1 H     4.30665638754E-01  4.73787845544E-01  3.46917762887E-01
 242  11   2    1 H    -3.73129917344E-01  8.37478758664E-02  1.53082237113E-01
 243  11   3    1 H     6.93343612462E-02  4.16252124134E-01  4.31222067898E-02
 244  11   4    1 H    -1.26870082656E-01  2.62121544564E-02  4.56877793210E-01
 245  11   5    1 H     3.46917762887E-01  4.30665638754E-01  4.73787845544E-01
 246  11   6    1 H     4.73787845544E-01  3.46917762887E-01  4.30665638754E-01
 247  11   7    1 H     4.56877793210E-01 -1.26870082656E-01  2.62121544564E-02
 248  11   8    1 H     8.37478758664E-02  1.53082237113E-01 -3.73129917344E-01
 249  11   9    1 H     1.53082237113E-01 -3.73129917344E-01  8.37478758664E-02
 250  11  10    1 H     4.16252124134E-01  4.31222067898E-02  6.93343612462E-02
 251  11  11    1 H     4.31222067898E-02  6.93343612462E-02  4.16252124134E-01
 252  11  12    1 H     2.62121544564E-02  4.56877793210E-01 -1.26870082656E-01
 253  11  13    1 H    -2.62121544564E-02 -6.93343612462E-02 -1.53082237113E-01
 254  11  14    1 H    -4.16252124134E-01  1.26870082656E-01 -3.46917762887E-01
 255  11  15    1 H    -8.37478758664E-02 -4.30665638754E-01 -4.56877793210E-01
 256  11  16    1 H    -4.73787845544E-01  3.73129917344E-01 -4.31222067898E-02
 257  11  17    1 H    -6.93343612462E-02 -1.53082237113E-01 -2.62121544564E-02
 258  11  18    1 H    -1.53082237113E-01 -2.62121544564E-02 -6.93343612462E-02
 259  11  19    1 H     3.73129917344E-01 -4.31222067898E-02 -4.73787845544E-01
 260  11  20    1 H    -3.46917762887E-01 -4.16252124134E-01  1.26870082656E-01
 261  11  21    1 H     1.26870082656E-01 -3.46917762887E-01 -4.16252124134E-01
 262  11  22    1 H    -4.56877793210E-01 -8.37478758664E-02 -4.30665638754E-01
 263  11  23    1 H    -4.30665638754E-01 -4.56877793210E-01 -8.37478758664E-02
 264  11  24    1 H    -4.31222067898E-02 -4.73787845544E-01  3.73129917344E-01

 265  12   1    6 C     2.50000000000E-01 -3.75000000000E-01  3.75000000000E-01
 266  12   2    6 C    -2.50000000000E-01 -1.25000000000E-01  1.25000000000E-01
 267  12   3    6 C     3.75000000000E-01  2.50000000000E-01 -3.75000000000E-01
 268  12   4    6 C    -3.75000000000E-01  3.75000000000E-01  2.50000000000E-01
 269  12   5    6 C     1.25000000000E-01 -2.50000000000E-01 -1.25000000000E-01
 270  12   6    6 C    -1.25000000000E-01  1.25000000000E-01 -2.50000000000E-01

 NUMBER OF SYMMETRY OPERATORS         :   24
 *******************************************************************************
 * GEOMETRY EDITING - INPUT COORDINATES ARE GIVEN IN ANGSTROM         
 *******************************************************************************

 GEOMETRY NOW FULLY CONSISTENT WITH THE GROUP
 INFORMATION **** NEW DEFAULT **** FINALRUN 4 FOR GEOMETRY OPTIMIZATIONS
 INFORMATION **** NEW DEFAULT **** OPTGEOM OPTIMIZES BOTH ATOMIC COORDINATES AND CELL PARAMETERS
 INFORMATION **** NEW DEFAULT **** TOL. ON ATOMIC DISP TO REDEFINE REF. GEOMETRY: 0.8 Angs
 INFORMATION **** NEW DEFAULT **** N POINTS TO REDEFINE REF. GEOMETRY: N OF OPT DEGS OF FREEDOM
 INFORMATION **** NEW DEFAULT **** TOL. ON ENERGY TO REDEFINE REF. GEOMETRY: 10**-3*(5*N. ATOMS)
 INFORMATION **** FULLOPTG **** FULL OPTIMIZATION (ATOMS AND CELL PARAMETERS)
 INFORMATION **** TOLDEG **** MODIFY CONVERGENCE CRITERIUM FOR RMS GRADIENT  3.000000E-04
 INFORMATION **** TOLDEX ****  CONVERGENCE CRITERIUM FOR RMS DISPLACEMENT MODIFIED  1.200000E-04
 INFORMATION **** MAXCYCLE ****   MAXIMUM NUMBER OF OPTIMIZATION CYCLES        1600

 IMPORTANT INFORMATION:
 THE COORDINATE SYSTEM ADOPTED IN THE OPTIMIZATION IS NOT IN
 GENERAL HOMOGENEOUS UNITS. FOR THIS REASON THE GRADIENT AND 
 HESSIAN MATRIX IN TERMS OF THIS SYSTEM ARE GIVEN WITHOUT
 UNITS. FOR MORE DETAILS SEE THE MANUAL.

 *******************************************************************************
 COMBINED CELL/ATOM OPTIMIZATION CONTROL

 INITIAL TRUST RADIUS         0.50000 MAXIMUM TRUST RADIUS               4.00000
 MAXIMUM GRADIENT COMPONENT   0.00005 MAXIMUM DISPLACEMENT COMPONENT     0.00018
 R.M.S. OF GRADIENT COMPONENT 0.00003 R.M.S. OF DISPLACEMENT COMPONENTS  0.00012
 THRESHOLD ON ENERGY CHANGE 0.100E-06 EXTRAPOLATING POLYNOMIAL ORDER           2
 MAXIMUM ALLOWED NUMBER OF STEPS 1600 SORTING OF ENERGY POINTS:               NO
 ANALYTICAL  GRADIENT                 HESSIAN UPDATING                      BFGS
 STEP SIZE NUMERICAL GRADIENT 0.00100
 INITIAL HESSIAN MATRIX: SCHLEGEL MODEL 2
 *******************************************************************************


 GCALCO - MAX INDICES DIRECT LATTICE VECTOR    14    14    14
 NO.OF VECTORS CREATED 6999 STARS  122 RMAX   465.14688 BOHR

 GEOMETRY FOR WAVE FUNCTION - DIMENSIONALITY OF THE SYSTEM    3
 (NON PERIODIC DIRECTION: LATTICE PARAMETER FORMALLY SET TO 500)
 *******************************************************************************
 LATTICE PARAMETERS (ANGSTROMS AND DEGREES) - BOHR = 0.5291772083 ANGSTROM
 PRIMITIVE CELL - CENTRING CODE 6/0 VOLUME=  8880.935797 - DENSITY  0.485 g/cm^3
         A              B              C           ALPHA      BETA       GAMMA 
    22.59575586    22.59575586    22.59575586   109.471221 109.471221 109.471221
 *******************************************************************************
 ATOMS IN THE ASYMMETRIC UNIT   12 - ATOMS IN THE UNIT CELL:  270
     ATOM                 X/A                 Y/B                 Z/C    
 *******************************************************************************
      1 T   6 C     2.772994588053E-01 -4.572745565614E-01  4.247233432361E-01
      2 F   6 C    -3.819978997975E-01 -1.474238844308E-01  7.527665676388E-02
      3 F   6 C     2.227005411947E-01 -3.525761155692E-01  2.654259846333E-01
      4 F   6 C    -1.180021002025E-01 -4.272544343860E-02  2.345740153667E-01
      5 F   6 C     4.247233432361E-01  2.772994588053E-01 -4.572745565614E-01
      6 F   6 C    -4.572745565614E-01  4.247233432361E-01  2.772994588053E-01
      7 F   6 C     2.345740153667E-01 -1.180021002025E-01 -4.272544343860E-02
      8 F   6 C    -1.474238844308E-01  7.527665676388E-02 -3.819978997975E-01
      9 F   6 C     7.527665676388E-02 -3.819978997975E-01 -1.474238844308E-01
     10 F   6 C    -3.525761155692E-01  2.654259846333E-01  2.227005411947E-01
     11 F   6 C     2.654259846333E-01  2.227005411947E-01 -3.525761155692E-01
     12 F   6 C    -4.272544343860E-02  2.345740153667E-01 -1.180021002025E-01
     13 F   6 C     4.272544343860E-02 -2.227005411947E-01 -7.527665676388E-02
     14 F   6 C     3.525761155692E-01  1.180021002025E-01 -4.247233432361E-01
     15 F   6 C     1.474238844308E-01 -2.772994588053E-01 -2.345740153667E-01
     16 F   6 C     4.572745565614E-01  3.819978997975E-01 -2.654259846333E-01
     17 F   6 C    -2.227005411947E-01 -7.527665676388E-02  4.272544343860E-02
     18 F   6 C    -7.527665676388E-02  4.272544343860E-02 -2.227005411947E-01
     19 F   6 C     3.819978997975E-01 -2.654259846333E-01  4.572745565614E-01
     20 F   6 C    -4.247233432361E-01  3.525761155692E-01  1.180021002025E-01
     21 F   6 C     1.180021002025E-01 -4.247233432361E-01  3.525761155692E-01
     22 F   6 C    -2.345740153667E-01  1.474238844308E-01 -2.772994588053E-01
     23 F   6 C    -2.772994588053E-01 -2.345740153667E-01  1.474238844308E-01
     24 F   6 C    -2.654259846333E-01  4.572745565614E-01  3.819978997975E-01
     25 T   1 H     2.428862724607E-01 -4.551199715106E-01  4.492542757797E-01
     26 F   1 H    -4.043742472903E-01 -2.063680033190E-01  5.074572422027E-02
     27 F   1 H     2.571137275393E-01 -2.936319966810E-01  3.019937560287E-01
     28 F   1 H    -9.562575270967E-02 -4.488002848940E-02  1.980062439713E-01
     29 F   1 H     4.492542757797E-01  2.428862724607E-01 -4.551199715106E-01
     30 F   1 H    -4.551199715106E-01  4.492542757797E-01  2.428862724607E-01
     31 F   1 H     1.980062439713E-01 -9.562575270967E-02 -4.488002848940E-02
     32 F   1 H    -2.063680033190E-01  5.074572422027E-02 -4.043742472903E-01
     33 F   1 H     5.074572422027E-02 -4.043742472903E-01 -2.063680033190E-01
     34 F   1 H    -2.936319966810E-01  3.019937560287E-01  2.571137275393E-01
     35 F   1 H     3.019937560287E-01  2.571137275393E-01 -2.936319966810E-01
     36 F   1 H    -4.488002848940E-02  1.980062439713E-01 -9.562575270967E-02
     37 F   1 H     4.488002848940E-02 -2.571137275393E-01 -5.074572422027E-02
     38 F   1 H     2.936319966810E-01  9.562575270967E-02 -4.492542757797E-01
     39 F   1 H     2.063680033190E-01 -2.428862724607E-01 -1.980062439713E-01
     40 F   1 H     4.551199715106E-01  4.043742472903E-01 -3.019937560287E-01
     41 F   1 H    -2.571137275393E-01 -5.074572422027E-02  4.488002848940E-02
     42 F   1 H    -5.074572422027E-02  4.488002848940E-02 -2.571137275393E-01
     43 F   1 H     4.043742472903E-01 -3.019937560287E-01  4.551199715106E-01
     44 F   1 H    -4.492542757797E-01  2.936319966810E-01  9.562575270967E-02
     45 F   1 H     9.562575270967E-02 -4.492542757797E-01  2.936319966810E-01
     46 F   1 H    -1.980062439713E-01  2.063680033190E-01 -2.428862724607E-01
     47 F   1 H    -2.428862724607E-01 -1.980062439713E-01  2.063680033190E-01
     48 F   1 H    -3.019937560287E-01  4.551199715106E-01  4.043742472903E-01
     49 T   6 C     2.855772615397E-01 -4.203599861140E-01  3.859615988453E-01
     50 F   6 C    -3.063215849593E-01 -1.003843373056E-01  1.140384011547E-01
     51 F   6 C     2.144227384603E-01 -3.996156626944E-01  2.940627523463E-01
     52 F   6 C    -1.936784150407E-01 -7.964001388600E-02  2.059372476537E-01
     53 F   6 C     3.859615988453E-01  2.855772615397E-01 -4.203599861140E-01
     54 F   6 C    -4.203599861140E-01  3.859615988453E-01  2.855772615397E-01
     55 F   6 C     2.059372476537E-01 -1.936784150407E-01 -7.964001388600E-02
     56 F   6 C    -1.003843373056E-01  1.140384011547E-01 -3.063215849593E-01
     57 F   6 C     1.140384011547E-01 -3.063215849593E-01 -1.003843373056E-01
     58 F   6 C    -3.996156626944E-01  2.940627523463E-01  2.144227384603E-01
     59 F   6 C     2.940627523463E-01  2.144227384603E-01 -3.996156626944E-01
     60 F   6 C    -7.964001388600E-02  2.059372476537E-01 -1.936784150407E-01
     61 F   6 C     7.964001388600E-02 -2.144227384603E-01 -1.140384011547E-01
     62 F   6 C     3.996156626944E-01  1.936784150407E-01 -3.859615988453E-01
     63 F   6 C     1.003843373056E-01 -2.855772615397E-01 -2.059372476537E-01
     64 F   6 C     4.203599861140E-01  3.063215849593E-01 -2.940627523463E-01
     65 F   6 C    -2.144227384603E-01 -1.140384011547E-01  7.964001388600E-02
     66 F   6 C    -1.140384011547E-01  7.964001388600E-02 -2.144227384603E-01
     67 F   6 C     3.063215849593E-01 -2.940627523463E-01  4.203599861140E-01
     68 F   6 C    -3.859615988453E-01  3.996156626944E-01  1.936784150407E-01
     69 F   6 C     1.936784150407E-01 -3.859615988453E-01  3.996156626944E-01
     70 F   6 C    -2.059372476537E-01  1.003843373056E-01 -2.855772615397E-01
     71 F   6 C    -2.855772615397E-01 -2.059372476537E-01  1.003843373056E-01
     72 F   6 C    -2.940627523463E-01  4.203599861140E-01  3.063215849593E-01
     73 T   6 C     3.277743245144E-01 -4.304186305300E-01  3.532297363520E-01
     74 F   6 C    -2.836483668820E-01 -2.545541183760E-02  1.467702636480E-01
     75 F   6 C     1.722256754856E-01 -4.745445881624E-01  2.418070449556E-01
     76 F   6 C    -2.163516331180E-01 -6.958136947000E-02  2.581929550444E-01
     77 F   6 C     3.532297363520E-01  3.277743245144E-01 -4.304186305300E-01
     78 F   6 C    -4.304186305300E-01  3.532297363520E-01  3.277743245144E-01
     79 F   6 C     2.581929550444E-01 -2.163516331180E-01 -6.958136947000E-02
     80 F   6 C    -2.545541183760E-02  1.467702636480E-01 -2.836483668820E-01
     81 F   6 C     1.467702636480E-01 -2.836483668820E-01 -2.545541183760E-02
     82 F   6 C    -4.745445881624E-01  2.418070449556E-01  1.722256754856E-01
     83 F   6 C     2.418070449556E-01  1.722256754856E-01 -4.745445881624E-01
     84 F   6 C    -6.958136947000E-02  2.581929550444E-01 -2.163516331180E-01
     85 F   6 C     6.958136947000E-02 -1.722256754856E-01 -1.467702636480E-01
     86 F   6 C     4.745445881624E-01  2.163516331180E-01 -3.532297363520E-01
     87 F   6 C     2.545541183760E-02 -3.277743245144E-01 -2.581929550444E-01
     88 F   6 C     4.304186305300E-01  2.836483668820E-01 -2.418070449556E-01
     89 F   6 C    -1.722256754856E-01 -1.467702636480E-01  6.958136947000E-02
     90 F   6 C    -1.467702636480E-01  6.958136947000E-02 -1.722256754856E-01
     91 F   6 C     2.836483668820E-01 -2.418070449556E-01  4.304186305300E-01
     92 F   6 C    -3.532297363520E-01  4.745445881624E-01  2.163516331180E-01
     93 F   6 C     2.163516331180E-01 -3.532297363520E-01  4.745445881624E-01
     94 F   6 C    -2.581929550444E-01  2.545541183760E-02 -3.277743245144E-01
     95 F   6 C    -3.277743245144E-01 -2.581929550444E-01  2.545541183760E-02
     96 F   6 C    -2.418070449556E-01  4.304186305300E-01  2.836483668820E-01
     97 T   1 H     3.330419177806E-01 -4.069260242484E-01  3.184050394094E-01
     98 F   1 H    -2.253310636578E-01  1.463687837120E-02  1.815949605906E-01
     99 F   1 H     1.669580822194E-01  4.853631216288E-01  2.600320579710E-01
    100 F   1 H    -2.746689363422E-01 -9.307397575160E-02  2.399679420290E-01
    101 F   1 H     3.184050394094E-01  3.330419177806E-01 -4.069260242484E-01
    102 F   1 H    -4.069260242484E-01  3.184050394094E-01  3.330419177806E-01
    103 F   1 H     2.399679420290E-01 -2.746689363422E-01 -9.307397575160E-02
    104 F   1 H     1.463687837120E-02  1.815949605906E-01 -2.253310636578E-01
    105 F   1 H     1.815949605906E-01 -2.253310636578E-01  1.463687837120E-02
    106 F   1 H     4.853631216288E-01  2.600320579710E-01  1.669580822194E-01
    107 F   1 H     2.600320579710E-01  1.669580822194E-01  4.853631216288E-01
    108 F   1 H    -9.307397575160E-02  2.399679420290E-01 -2.746689363422E-01
    109 F   1 H     9.307397575160E-02 -1.669580822194E-01 -1.815949605906E-01
    110 F   1 H    -4.853631216288E-01  2.746689363422E-01 -3.184050394094E-01
    111 F   1 H    -1.463687837120E-02 -3.330419177806E-01 -2.399679420290E-01
    112 F   1 H     4.069260242484E-01  2.253310636578E-01 -2.600320579710E-01
    113 F   1 H    -1.669580822194E-01 -1.815949605906E-01  9.307397575160E-02
    114 F   1 H    -1.815949605906E-01  9.307397575160E-02 -1.669580822194E-01
    115 F   1 H     2.253310636578E-01 -2.600320579710E-01  4.069260242484E-01
    116 F   1 H    -3.184050394094E-01 -4.853631216288E-01  2.746689363422E-01
    117 F   1 H     2.746689363422E-01 -3.184050394094E-01 -4.853631216288E-01
    118 F   1 H    -2.399679420290E-01 -1.463687837120E-02 -3.330419177806E-01
    119 F   1 H    -3.330419177806E-01 -2.399679420290E-01 -1.463687837120E-02
    120 F   1 H    -2.600320579710E-01  4.069260242484E-01  2.253310636578E-01
    121 T   7 N     3.606659575813E-01 -4.687947099889E-01  3.602760742768E-01
    122 F   7 N    -3.290707842657E-01  3.898833045001E-04  1.397239257232E-01
    123 F   7 N     1.393340424187E-01  4.996101166955E-01  1.705393324298E-01
    124 F   7 N    -1.709292157343E-01 -3.120529001110E-02  3.294606675702E-01
    125 F   7 N     3.602760742768E-01  3.606659575813E-01 -4.687947099889E-01
    126 F   7 N    -4.687947099889E-01  3.602760742768E-01  3.606659575813E-01
    127 F   7 N     3.294606675702E-01 -1.709292157343E-01 -3.120529001110E-02
    128 F   7 N     3.898833045001E-04  1.397239257232E-01 -3.290707842657E-01
    129 F   7 N     1.397239257232E-01 -3.290707842657E-01  3.898833045001E-04
    130 F   7 N     4.996101166955E-01  1.705393324298E-01  1.393340424187E-01
    131 F   7 N     1.705393324298E-01  1.393340424187E-01  4.996101166955E-01
    132 F   7 N    -3.120529001110E-02  3.294606675702E-01 -1.709292157343E-01
    133 F   7 N     3.120529001110E-02 -1.393340424187E-01 -1.397239257232E-01
    134 F   7 N    -4.996101166955E-01  1.709292157343E-01 -3.602760742768E-01
    135 F   7 N    -3.898833045000E-04 -3.606659575813E-01 -3.294606675702E-01
    136 F   7 N     4.687947099889E-01  3.290707842657E-01 -1.705393324298E-01
    137 F   7 N    -1.393340424187E-01 -1.397239257232E-01  3.120529001110E-02
    138 F   7 N    -1.397239257232E-01  3.120529001110E-02 -1.393340424187E-01
    139 F   7 N     3.290707842657E-01 -1.705393324298E-01  4.687947099889E-01
    140 F   7 N    -3.602760742768E-01 -4.996101166955E-01  1.709292157343E-01
    141 F   7 N     1.709292157343E-01 -3.602760742768E-01 -4.996101166955E-01
    142 F   7 N    -3.294606675702E-01 -3.898833045000E-04 -3.606659575813E-01
    143 F   7 N    -3.606659575813E-01 -3.294606675702E-01 -3.898833045000E-04
    144 F   7 N    -1.705393324298E-01  4.687947099889E-01  3.290707842657E-01
    145 T   6 C     3.501587767165E-01  4.996923899294E-01  4.010739920591E-01
    146 F   6 C    -4.013816021297E-01 -5.091521534260E-02  9.892600794090E-02
    147 F   6 C     1.498412232835E-01 -4.490847846574E-01  1.495336132129E-01
    148 F   6 C    -9.861839787030E-02  3.076100706000E-04  3.504663867871E-01
    149 F   6 C     4.010739920591E-01  3.501587767165E-01  4.996923899294E-01
    150 F   6 C     4.996923899294E-01  4.010739920591E-01  3.501587767165E-01
    151 F   6 C     3.504663867871E-01 -9.861839787030E-02  3.076100706000E-04
    152 F   6 C    -5.091521534260E-02  9.892600794090E-02 -4.013816021297E-01
    153 F   6 C     9.892600794090E-02 -4.013816021297E-01 -5.091521534260E-02
    154 F   6 C    -4.490847846574E-01  1.495336132129E-01  1.498412232835E-01
    155 F   6 C     1.495336132129E-01  1.498412232835E-01 -4.490847846574E-01
    156 F   6 C     3.076100706000E-04  3.504663867871E-01 -9.861839787030E-02
    157 F   6 C    -3.076100706001E-04 -1.498412232835E-01 -9.892600794090E-02
    158 F   6 C     4.490847846574E-01  9.861839787030E-02 -4.010739920591E-01
    159 F   6 C     5.091521534260E-02 -3.501587767165E-01 -3.504663867871E-01
    160 F   6 C    -4.996923899294E-01  4.013816021297E-01 -1.495336132129E-01
    161 F   6 C    -1.498412232835E-01 -9.892600794090E-02 -3.076100706001E-04
    162 F   6 C    -9.892600794090E-02 -3.076100706001E-04 -1.498412232835E-01
    163 F   6 C     4.013816021297E-01 -1.495336132129E-01 -4.996923899294E-01
    164 F   6 C    -4.010739920591E-01  4.490847846574E-01  9.861839787030E-02
    165 F   6 C     9.861839787030E-02 -4.010739920591E-01  4.490847846574E-01
    166 F   6 C    -3.504663867871E-01  5.091521534260E-02 -3.501587767165E-01
    167 F   6 C    -3.501587767165E-01 -3.504663867871E-01  5.091521534260E-02
    168 F   6 C    -1.495336132129E-01 -4.996923899294E-01  4.013816021297E-01
    169 T   6 C     3.846977743281E-01  4.588099041331E-01  4.099034968488E-01
    170 F   6 C    -4.510935927157E-01 -2.520572252070E-02  9.009650315120E-02
    171 F   6 C     1.153022256719E-01 -4.747942774793E-01  7.411212980500E-02
    172 F   6 C    -4.890640728430E-02  4.119009586690E-02  4.258878701950E-01
    173 F   6 C     4.099034968488E-01  3.846977743281E-01  4.588099041331E-01
    174 F   6 C     4.588099041331E-01  4.099034968488E-01  3.846977743281E-01
    175 F   6 C     4.258878701950E-01 -4.890640728430E-02  4.119009586690E-02
    176 F   6 C    -2.520572252070E-02  9.009650315120E-02 -4.510935927157E-01
    177 F   6 C     9.009650315120E-02 -4.510935927157E-01 -2.520572252070E-02
    178 F   6 C    -4.747942774793E-01  7.411212980500E-02  1.153022256719E-01
    179 F   6 C     7.411212980500E-02  1.153022256719E-01 -4.747942774793E-01
    180 F   6 C     4.119009586690E-02  4.258878701950E-01 -4.890640728430E-02
    181 F   6 C    -4.119009586690E-02 -1.153022256719E-01 -9.009650315120E-02
    182 F   6 C     4.747942774793E-01  4.890640728430E-02 -4.099034968488E-01
    183 F   6 C     2.520572252070E-02 -3.846977743281E-01 -4.258878701950E-01
    184 F   6 C    -4.588099041331E-01  4.510935927157E-01 -7.411212980500E-02
    185 F   6 C    -1.153022256719E-01 -9.009650315120E-02 -4.119009586690E-02
    186 F   6 C    -9.009650315120E-02 -4.119009586690E-02 -1.153022256719E-01
    187 F   6 C     4.510935927157E-01 -7.411212980500E-02 -4.588099041331E-01
    188 F   6 C    -4.099034968488E-01  4.747942774793E-01  4.890640728430E-02
    189 F   6 C     4.890640728430E-02 -4.099034968488E-01  4.747942774793E-01
    190 F   6 C    -4.258878701950E-01  2.520572252070E-02 -3.846977743281E-01
    191 F   6 C    -3.846977743281E-01 -4.258878701950E-01  2.520572252070E-02
    192 F   6 C    -7.411212980500E-02 -4.588099041331E-01  4.510935927157E-01
    193 T   7 N     3.085314553575E-01 -4.969801455753E-01  4.329935898612E-01
    194 F   7 N    -4.299737354365E-01 -1.244621345037E-01  6.700641013880E-02
    195 F   7 N     1.914685446425E-01 -3.755378654963E-01  1.944883990672E-01
    196 F   7 N    -7.002626456350E-02 -3.019854424700E-03  3.055116009328E-01
    197 F   7 N     4.329935898612E-01  3.085314553575E-01 -4.969801455753E-01
    198 F   7 N    -4.969801455753E-01  4.329935898612E-01  3.085314553575E-01
    199 F   7 N     3.055116009328E-01 -7.002626456350E-02 -3.019854424700E-03
    200 F   7 N    -1.244621345037E-01  6.700641013880E-02 -4.299737354365E-01
    201 F   7 N     6.700641013880E-02 -4.299737354365E-01 -1.244621345037E-01
    202 F   7 N    -3.755378654963E-01  1.944883990672E-01  1.914685446425E-01
    203 F   7 N     1.944883990672E-01  1.914685446425E-01 -3.755378654963E-01
    204 F   7 N    -3.019854424700E-03  3.055116009328E-01 -7.002626456350E-02
    205 F   7 N     3.019854424700E-03 -1.914685446425E-01 -6.700641013880E-02
    206 F   7 N     3.755378654963E-01  7.002626456350E-02 -4.329935898612E-01
    207 F   7 N     1.244621345037E-01 -3.085314553575E-01 -3.055116009328E-01
    208 F   7 N     4.969801455753E-01  4.299737354365E-01 -1.944883990672E-01
    209 F   7 N    -1.914685446425E-01 -6.700641013880E-02  3.019854424700E-03
    210 F   7 N    -6.700641013880E-02  3.019854424700E-03 -1.914685446425E-01
    211 F   7 N     4.299737354365E-01 -1.944883990672E-01  4.969801455753E-01
    212 F   7 N    -4.329935898612E-01  3.755378654963E-01  7.002626456350E-02
    213 F   7 N     7.002626456350E-02 -4.329935898612E-01  3.755378654963E-01
    214 F   7 N    -3.055116009328E-01  1.244621345037E-01 -3.085314553575E-01
    215 F   7 N    -3.085314553575E-01 -3.055116009328E-01  1.244621345037E-01
    216 F   7 N    -1.944883990672E-01  4.969801455753E-01  4.299737354365E-01
    217 T   7 N     4.257494241981E-01  4.502852778456E-01  3.781526911185E-01
    218 F   7 N    -4.278674132729E-01  4.759673307960E-02  1.218473088815E-01
    219 F   7 N     7.425057580190E-02  4.524032669204E-01  2.453585364750E-02
    220 F   7 N    -7.213258672710E-02  4.971472215440E-02  4.754641463525E-01
    221 F   7 N     3.781526911185E-01  4.257494241981E-01  4.502852778456E-01
    222 F   7 N     4.502852778456E-01  3.781526911185E-01  4.257494241981E-01
    223 F   7 N     4.754641463525E-01 -7.213258672710E-02  4.971472215440E-02
    224 F   7 N     4.759673307960E-02  1.218473088815E-01 -4.278674132729E-01
    225 F   7 N     1.218473088815E-01 -4.278674132729E-01  4.759673307960E-02
    226 F   7 N     4.524032669204E-01  2.453585364750E-02  7.425057580190E-02
    227 F   7 N     2.453585364750E-02  7.425057580190E-02  4.524032669204E-01
    228 F   7 N     4.971472215440E-02  4.754641463525E-01 -7.213258672710E-02
    229 F   7 N    -4.971472215440E-02 -7.425057580190E-02 -1.218473088815E-01
    230 F   7 N    -4.524032669204E-01  7.213258672710E-02 -3.781526911185E-01
    231 F   7 N    -4.759673307960E-02 -4.257494241981E-01 -4.754641463525E-01
    232 F   7 N    -4.502852778456E-01  4.278674132729E-01 -2.453585364750E-02
    233 F   7 N    -7.425057580190E-02 -1.218473088815E-01 -4.971472215440E-02
    234 F   7 N    -1.218473088815E-01 -4.971472215440E-02 -7.425057580190E-02
    235 F   7 N     4.278674132729E-01 -2.453585364750E-02 -4.502852778456E-01
    236 F   7 N    -3.781526911185E-01 -4.524032669204E-01  7.213258672710E-02
    237 F   7 N     7.213258672710E-02 -3.781526911185E-01 -4.524032669204E-01
    238 F   7 N    -4.754641463525E-01 -4.759673307960E-02 -4.257494241981E-01
    239 F   7 N    -4.257494241981E-01 -4.754641463525E-01 -4.759673307960E-02
    240 F   7 N    -2.453585364750E-02 -4.502852778456E-01  4.278674132729E-01
    241 T   1 H     4.306656387538E-01  4.737878455436E-01  3.469177628874E-01
    242 F   1 H    -3.731299173438E-01  8.374787586640E-02  1.530822371126E-01
    243 F   1 H     6.933436124620E-02  4.162521241336E-01  4.312220678980E-02
    244 F   1 H    -1.268700826562E-01  2.621215445640E-02  4.568777932102E-01
    245 F   1 H     3.469177628874E-01  4.306656387538E-01  4.737878455436E-01
    246 F   1 H     4.737878455436E-01  3.469177628874E-01  4.306656387538E-01
    247 F   1 H     4.568777932102E-01 -1.268700826562E-01  2.621215445640E-02
    248 F   1 H     8.374787586640E-02  1.530822371126E-01 -3.731299173438E-01
    249 F   1 H     1.530822371126E-01 -3.731299173438E-01  8.374787586640E-02
    250 F   1 H     4.162521241336E-01  4.312220678980E-02  6.933436124620E-02
    251 F   1 H     4.312220678980E-02  6.933436124620E-02  4.162521241336E-01
    252 F   1 H     2.621215445640E-02  4.568777932102E-01 -1.268700826562E-01
    253 F   1 H    -2.621215445640E-02 -6.933436124620E-02 -1.530822371126E-01
    254 F   1 H    -4.162521241336E-01  1.268700826562E-01 -3.469177628874E-01
    255 F   1 H    -8.374787586640E-02 -4.306656387538E-01 -4.568777932102E-01
    256 F   1 H    -4.737878455436E-01  3.731299173438E-01 -4.312220678980E-02
    257 F   1 H    -6.933436124620E-02 -1.530822371126E-01 -2.621215445640E-02
    258 F   1 H    -1.530822371126E-01 -2.621215445640E-02 -6.933436124620E-02
    259 F   1 H     3.731299173438E-01 -4.312220678980E-02 -4.737878455436E-01
    260 F   1 H    -3.469177628874E-01 -4.162521241336E-01  1.268700826562E-01
    261 F   1 H     1.268700826562E-01 -3.469177628874E-01 -4.162521241336E-01
    262 F   1 H    -4.568777932102E-01 -8.374787586640E-02 -4.306656387538E-01
    263 F   1 H    -4.306656387538E-01 -4.568777932102E-01 -8.374787586640E-02
    264 F   1 H    -4.312220678980E-02 -4.737878455436E-01  3.731299173438E-01
    265 T   6 C     2.500000000000E-01 -3.750000000000E-01  3.750000000000E-01
    266 F   6 C    -2.500000000000E-01 -1.250000000000E-01  1.250000000000E-01
    267 F   6 C     3.750000000000E-01  2.500000000000E-01 -3.750000000000E-01
    268 F   6 C    -3.750000000000E-01  3.750000000000E-01  2.500000000000E-01
    269 F   6 C     1.250000000000E-01 -2.500000000000E-01 -1.250000000000E-01
    270 F   6 C    -1.250000000000E-01  1.250000000000E-01 -2.500000000000E-01

 TRANSFORMATION MATRIX PRIMITIVE-CRYSTALLOGRAPHIC CELL
  0.0000  1.0000  1.0000  1.0000  0.0000  1.0000  1.0000  1.0000  0.0000

 *******************************************************************************
 CRYSTALLOGRAPHIC CELL (VOLUME=      17761.87159469)
         A              B              C           ALPHA      BETA       GAMMA 
    26.09133146    26.09133146    26.09133146    90.000000  90.000000  90.000000

 COORDINATES IN THE CRYSTALLOGRAPHIC CELL
     ATOM                 X/A                 Y/B                 Z/C    
 *******************************************************************************
      1 T   6 C     3.450746639347E-01  7.964867930142E-02  1.976507795039E-01
      2 F   6 C     1.549253360653E-01 -7.964867930142E-02 -3.023492204961E-01
      3 F   6 C     3.450746639347E-01 -7.964867930142E-02  3.023492204961E-01
      4 F   6 C     1.549253360653E-01  7.964867930142E-02 -1.976507795039E-01
      5 F   6 C     1.976507795039E-01  3.450746639347E-01  7.964867930142E-02
      6 F   6 C     7.964867930142E-02  1.976507795039E-01  3.450746639347E-01
      7 F   6 C    -1.976507795039E-01  1.549253360653E-01  7.964867930142E-02
      8 F   6 C    -7.964867930142E-02 -3.023492204961E-01  1.549253360653E-01
      9 F   6 C    -3.023492204961E-01  1.549253360653E-01 -7.964867930142E-02
     10 F   6 C    -7.964867930142E-02  3.023492204961E-01  3.450746639347E-01
     11 F   6 C     3.023492204961E-01  3.450746639347E-01 -7.964867930142E-02
     12 F   6 C     7.964867930142E-02 -1.976507795039E-01  1.549253360653E-01
     13 F   6 C    -1.703513206986E-01  9.507466393470E-02 -5.234922049610E-02
     14 F   6 C     1.703513206986E-01  4.049253360653E-01 -5.234922049610E-02
     15 F   6 C    -3.296486793014E-01  9.507466393470E-02  5.234922049610E-02
     16 F   6 C    -1.703513206986E-01 -9.507466393470E-02 -4.476507795039E-01
     17 F   6 C     9.507466393470E-02 -5.234922049610E-02 -1.703513206986E-01
     18 F   6 C    -5.234922049610E-02 -1.703513206986E-01  9.507466393470E-02
     19 F   6 C    -9.507466393470E-02 -4.476507795039E-01 -1.703513206986E-01
     20 F   6 C    -5.234922049610E-02  1.703513206986E-01  4.049253360653E-01
     21 F   6 C     4.049253360653E-01 -5.234922049610E-02  1.703513206986E-01
     22 F   6 C     5.234922049610E-02 -3.296486793014E-01  9.507466393470E-02
     23 F   6 C     9.507466393470E-02  5.234922049610E-02 -3.296486793014E-01
     24 F   6 C    -4.476507795039E-01 -1.703513206986E-01 -9.507466393470E-02
     25 T   1 H     3.756240159042E-01  7.363025987553E-02  1.692560125852E-01
     26 F   1 H     1.243759840958E-01 -7.363025987553E-02 -3.307439874148E-01
     27 F   1 H    -1.243759840958E-01  4.263697401245E-01 -1.692560125852E-01
     28 F   1 H     1.243759840958E-01  7.363025987553E-02 -1.692560125852E-01
     29 F   1 H     1.692560125852E-01  3.756240159042E-01  7.363025987553E-02
     30 F   1 H     7.363025987553E-02  1.692560125852E-01  3.756240159042E-01
     31 F   1 H    -1.692560125852E-01  1.243759840958E-01  7.363025987553E-02
     32 F   1 H    -7.363025987553E-02 -3.307439874148E-01  1.243759840958E-01
     33 F   1 H    -3.307439874148E-01  1.243759840958E-01 -7.363025987553E-02
     34 F   1 H     4.263697401245E-01 -1.692560125852E-01 -1.243759840958E-01
     35 F   1 H    -1.692560125852E-01 -1.243759840958E-01  4.263697401245E-01
     36 F   1 H     7.363025987553E-02 -1.692560125852E-01  1.243759840958E-01
     37 F   1 H    -1.763697401245E-01  1.256240159042E-01 -8.074398741480E-02
     38 F   1 H     1.763697401245E-01  3.743759840958E-01 -8.074398741480E-02
     39 F   1 H    -3.236302598755E-01  1.256240159042E-01  8.074398741480E-02
     40 F   1 H    -1.763697401245E-01 -1.256240159042E-01 -4.192560125852E-01
     41 F   1 H     1.256240159042E-01 -8.074398741480E-02 -1.763697401245E-01
     42 F   1 H    -8.074398741480E-02 -1.763697401245E-01  1.256240159042E-01
     43 F   1 H    -1.256240159042E-01 -4.192560125852E-01 -1.763697401245E-01
     44 F   1 H    -8.074398741480E-02  1.763697401245E-01  3.743759840958E-01
     45 F   1 H     3.743759840958E-01 -8.074398741480E-02  1.763697401245E-01
     46 F   1 H     8.074398741480E-02 -3.236302598755E-01  1.256240159042E-01
     47 F   1 H     1.256240159042E-01  8.074398741480E-02 -3.236302598755E-01
     48 F   1 H    -4.192560125852E-01 -1.763697401245E-01 -1.256240159042E-01
     49 T   6 C     3.400121755958E-01  4.594942324950E-02  2.396278382902E-01
     50 F   6 C     1.599878244042E-01 -4.594942324950E-02 -2.603721617098E-01
     51 F   6 C     3.400121755958E-01 -4.594942324950E-02  2.603721617098E-01
     52 F   6 C     1.599878244042E-01  4.594942324950E-02 -2.396278382902E-01
     53 F   6 C     2.396278382902E-01  3.400121755958E-01  4.594942324950E-02
     54 F   6 C     4.594942324950E-02  2.396278382902E-01  3.400121755958E-01
     55 F   6 C    -2.396278382902E-01  1.599878244042E-01  4.594942324950E-02
     56 F   6 C    -4.594942324950E-02 -2.603721617098E-01  1.599878244042E-01
     57 F   6 C    -2.603721617098E-01  1.599878244042E-01 -4.594942324950E-02
     58 F   6 C    -4.594942324950E-02  2.603721617098E-01  3.400121755958E-01
     59 F   6 C     2.603721617098E-01  3.400121755958E-01 -4.594942324950E-02
     60 F   6 C     4.594942324950E-02 -2.396278382902E-01  1.599878244042E-01
     61 F   6 C    -2.040505767505E-01  9.001217559580E-02 -1.037216170980E-02
     62 F   6 C     2.040505767505E-01  4.099878244042E-01 -1.037216170980E-02
     63 F   6 C    -2.959494232495E-01  9.001217559580E-02  1.037216170980E-02
     64 F   6 C     2.959494232495E-01  4.099878244042E-01  1.037216170980E-02
     65 F   6 C     9.001217559580E-02 -1.037216170980E-02 -2.040505767505E-01
     66 F   6 C    -1.037216170980E-02 -2.040505767505E-01  9.001217559580E-02
     67 F   6 C     4.099878244042E-01  1.037216170980E-02  2.959494232495E-01
     68 F   6 C    -1.037216170980E-02  2.040505767505E-01  4.099878244042E-01
     69 F   6 C     4.099878244042E-01 -1.037216170980E-02  2.040505767505E-01
     70 F   6 C     1.037216170980E-02 -2.959494232495E-01  9.001217559580E-02
     71 F   6 C     9.001217559580E-02  1.037216170980E-02 -2.959494232495E-01
     72 F   6 C     1.037216170980E-02  2.959494232495E-01  4.099878244042E-01
     73 T   6 C     2.975183906538E-01  5.571134569822E-02  2.720629788162E-01
     74 F   6 C     2.024816093462E-01 -5.571134569822E-02 -2.279370211838E-01
     75 F   6 C     2.975183906538E-01 -5.571134569822E-02  2.279370211838E-01
     76 F   6 C     2.024816093462E-01  5.571134569822E-02 -2.720629788162E-01
     77 F   6 C     2.720629788162E-01  2.975183906538E-01  5.571134569822E-02
     78 F   6 C     5.571134569822E-02  2.720629788162E-01  2.975183906538E-01
     79 F   6 C    -2.720629788162E-01  2.024816093462E-01  5.571134569822E-02
     80 F   6 C    -5.571134569822E-02 -2.279370211838E-01  2.024816093462E-01
     81 F   6 C    -2.279370211838E-01  2.024816093462E-01 -5.571134569822E-02
     82 F   6 C    -5.571134569822E-02  2.279370211838E-01  2.975183906538E-01
     83 F   6 C     2.279370211838E-01  2.975183906538E-01 -5.571134569822E-02
     84 F   6 C     5.571134569822E-02 -2.720629788162E-01  2.024816093462E-01
     85 F   6 C    -1.942886543018E-01  4.751839065380E-02  2.206297881620E-02
     86 F   6 C     1.942886543018E-01  4.524816093462E-01  2.206297881620E-02
     87 F   6 C    -3.057113456982E-01  4.751839065380E-02 -2.206297881620E-02
     88 F   6 C    -1.942886543018E-01 -4.751839065380E-02  4.779370211838E-01
     89 F   6 C     4.751839065380E-02  2.206297881620E-02 -1.942886543018E-01
     90 F   6 C     2.206297881620E-02 -1.942886543018E-01  4.751839065380E-02
     91 F   6 C    -4.751839065380E-02  4.779370211838E-01 -1.942886543018E-01
     92 F   6 C     2.206297881620E-02  1.942886543018E-01  4.524816093462E-01
     93 F   6 C     4.524816093462E-01  2.206297881620E-02  1.942886543018E-01
     94 F   6 C    -2.206297881620E-02 -3.057113456982E-01  4.751839065380E-02
     95 F   6 C     4.751839065380E-02 -2.206297881620E-02 -3.057113456982E-01
     96 F   6 C     4.779370211838E-01 -1.942886543018E-01 -4.751839065380E-02
     97 T   1 H     2.892185486902E-01  2.918649071917E-02  3.038554270614E-01
     98 F   1 H     2.107814513098E-01 -2.918649071917E-02 -1.961445729386E-01
     99 F   1 H     2.892185486902E-01 -2.918649071917E-02  1.961445729386E-01
    100 F   1 H     2.107814513098E-01  2.918649071917E-02 -3.038554270614E-01
    101 F   1 H     3.038554270614E-01  2.892185486902E-01  2.918649071917E-02
    102 F   1 H     2.918649071917E-02  3.038554270614E-01  2.892185486902E-01
    103 F   1 H    -3.038554270614E-01  2.107814513098E-01  2.918649071917E-02
    104 F   1 H    -2.918649071917E-02 -1.961445729386E-01  2.107814513098E-01
    105 F   1 H    -1.961445729386E-01  2.107814513098E-01 -2.918649071917E-02
    106 F   1 H    -2.918649071917E-02  1.961445729386E-01  2.892185486902E-01
    107 F   1 H     1.961445729386E-01  2.892185486902E-01 -2.918649071917E-02
    108 F   1 H     2.918649071917E-02 -3.038554270614E-01  2.107814513098E-01
    109 F   1 H    -2.208135092808E-01  3.921854869020E-02  5.385542706140E-02
    110 F   1 H     2.208135092808E-01  4.607814513098E-01  5.385542706140E-02
    111 F   1 H    -2.791864907192E-01  3.921854869020E-02 -5.385542706140E-02
    112 F   1 H    -2.208135092808E-01 -3.921854869020E-02  4.461445729386E-01
    113 F   1 H     3.921854869020E-02  5.385542706140E-02 -2.208135092808E-01
    114 F   1 H     5.385542706140E-02 -2.208135092808E-01  3.921854869020E-02
    115 F   1 H    -3.921854869020E-02  4.461445729386E-01 -2.208135092808E-01
    116 F   1 H     5.385542706140E-02  2.208135092808E-01  4.607814513098E-01
    117 F   1 H     4.607814513098E-01  5.385542706140E-02  2.208135092808E-01
    118 F   1 H    -5.385542706140E-02 -2.791864907192E-01  3.921854869020E-02
    119 F   1 H     3.921854869020E-02 -5.385542706140E-02 -2.791864907192E-01
    120 F   1 H     4.461445729386E-01 -2.208135092808E-01 -3.921854869020E-02
    121 T   7 N     2.654077033533E-01  9.486837092351E-02  2.657975866578E-01
    122 F   7 N     2.345922966467E-01 -9.486837092351E-02 -2.342024133422E-01
    123 F   7 N     2.654077033533E-01 -9.486837092351E-02  2.342024133422E-01
    124 F   7 N     2.345922966467E-01  9.486837092351E-02 -2.657975866578E-01
    125 F   7 N     2.657975866578E-01  2.654077033533E-01  9.486837092351E-02
    126 F   7 N     9.486837092351E-02  2.657975866578E-01  2.654077033533E-01
    127 F   7 N    -2.657975866578E-01  2.345922966467E-01  9.486837092351E-02
    128 F   7 N    -9.486837092351E-02 -2.342024133422E-01  2.345922966467E-01
    129 F   7 N    -2.342024133422E-01  2.345922966467E-01 -9.486837092351E-02
    130 F   7 N    -9.486837092351E-02  2.342024133422E-01  2.654077033533E-01
    131 F   7 N     2.342024133422E-01  2.654077033533E-01 -9.486837092351E-02
    132 F   7 N     9.486837092351E-02 -2.657975866578E-01  2.345922966467E-01
    133 F   7 N    -1.551316290765E-01  1.540770335330E-02  1.579758665780E-02
    134 F   7 N     1.551316290765E-01  4.845922966467E-01  1.579758665780E-02
    135 F   7 N    -3.448683709235E-01  1.540770335330E-02 -1.579758665780E-02
    136 F   7 N    -1.551316290765E-01 -1.540770335330E-02  4.842024133422E-01
    137 F   7 N     1.540770335330E-02  1.579758665780E-02 -1.551316290765E-01
    138 F   7 N     1.579758665780E-02 -1.551316290765E-01  1.540770335330E-02
    139 F   7 N    -1.540770335330E-02  4.842024133422E-01 -1.551316290765E-01
    140 F   7 N     1.579758665780E-02  1.551316290765E-01  4.845922966467E-01
    141 F   7 N     4.845922966467E-01  1.579758665780E-02  1.551316290765E-01
    142 F   7 N    -1.579758665780E-02 -3.448683709235E-01  1.540770335330E-02
    143 F   7 N     1.540770335330E-02 -1.579758665780E-02 -3.448683709235E-01
    144 F   7 N     4.842024133422E-01 -1.551316290765E-01 -1.540770335330E-02
    145 T   6 C     2.753038026360E-01  1.257701894231E-01  2.243885872934E-01
    146 F   6 C     2.246961973640E-01 -1.257701894231E-01 -2.756114127066E-01
    147 F   6 C     2.753038026360E-01 -1.257701894231E-01  2.756114127066E-01
    148 F   6 C     2.246961973640E-01  1.257701894231E-01 -2.243885872934E-01
    149 F   6 C     2.243885872934E-01  2.753038026360E-01  1.257701894231E-01
    150 F   6 C     1.257701894231E-01  2.243885872934E-01  2.753038026360E-01
    151 F   6 C    -2.243885872934E-01  2.246961973640E-01  1.257701894231E-01
    152 F   6 C    -1.257701894231E-01 -2.756114127066E-01  2.246961973640E-01
    153 F   6 C    -2.756114127066E-01  2.246961973640E-01 -1.257701894231E-01
    154 F   6 C    -1.257701894231E-01  2.756114127066E-01  2.753038026360E-01
    155 F   6 C     2.756114127066E-01  2.753038026360E-01 -1.257701894231E-01
    156 F   6 C     1.257701894231E-01 -2.243885872934E-01  2.246961973640E-01
    157 F   6 C    -1.242298105769E-01  2.530380263600E-02 -2.561141270660E-02
    158 F   6 C     1.242298105769E-01  4.746961973640E-01 -2.561141270660E-02
    159 F   6 C    -3.757701894231E-01  2.530380263600E-02  2.561141270660E-02
    160 F   6 C    -1.242298105769E-01 -2.530380263600E-02 -4.743885872934E-01
    161 F   6 C     2.530380263600E-02 -2.561141270660E-02 -1.242298105769E-01
    162 F   6 C    -2.561141270660E-02 -1.242298105769E-01  2.530380263600E-02
    163 F   6 C    -2.530380263600E-02 -4.743885872934E-01 -1.242298105769E-01
    164 F   6 C    -2.561141270660E-02  1.242298105769E-01  4.746961973640E-01
    165 F   6 C     4.746961973640E-01 -2.561141270660E-02  1.242298105769E-01
    166 F   6 C     2.561141270660E-02 -3.757701894231E-01  2.530380263600E-02
    167 F   6 C     2.530380263600E-02  2.561141270660E-02 -3.757701894231E-01
    168 F   6 C    -4.743885872934E-01 -1.242298105769E-01 -2.530380263600E-02
    169 T   6 C     2.420078133269E-01  1.678956835219E-01  2.168020908062E-01
    170 F   6 C     2.579921866731E-01 -1.678956835219E-01 -2.831979091938E-01
    171 F   6 C     2.420078133269E-01 -1.678956835219E-01  2.831979091938E-01
    172 F   6 C     2.579921866731E-01  1.678956835219E-01 -2.168020908062E-01
    173 F   6 C     2.168020908062E-01  2.420078133269E-01  1.678956835219E-01
    174 F   6 C     1.678956835219E-01  2.168020908062E-01  2.420078133269E-01
    175 F   6 C    -2.168020908062E-01  2.579921866731E-01  1.678956835219E-01
    176 F   6 C    -1.678956835219E-01 -2.831979091938E-01  2.579921866731E-01
    177 F   6 C    -2.831979091938E-01  2.579921866731E-01 -1.678956835219E-01
    178 F   6 C    -1.678956835219E-01  2.831979091938E-01  2.420078133269E-01
    179 F   6 C     2.831979091938E-01  2.420078133269E-01 -1.678956835219E-01
    180 F   6 C     1.678956835219E-01 -2.168020908062E-01  2.579921866731E-01
    181 F   6 C    -8.210431647810E-02 -7.992186673100E-03 -3.319790919380E-02
    182 F   6 C     8.210431647810E-02 -4.920078133269E-01 -3.319790919380E-02
    183 F   6 C    -4.178956835219E-01 -7.992186673100E-03  3.319790919380E-02
    184 F   6 C    -8.210431647810E-02  7.992186673100E-03 -4.668020908062E-01
    185 F   6 C    -7.992186673100E-03 -3.319790919380E-02 -8.210431647810E-02
    186 F   6 C    -3.319790919380E-02 -8.210431647810E-02 -7.992186673100E-03
    187 F   6 C     7.992186673100E-03 -4.668020908062E-01 -8.210431647810E-02
    188 F   6 C    -3.319790919380E-02  8.210431647810E-02 -4.920078133269E-01
    189 F   6 C    -4.920078133269E-01 -3.319790919380E-02  8.210431647810E-02
    190 F   6 C     3.319790919380E-02 -4.178956835219E-01 -7.992186673100E-03
    191 F   6 C    -7.992186673100E-03  3.319790919380E-02 -4.178956835219E-01
    192 F   6 C    -4.668020908062E-01 -8.210431647810E-02  7.992186673100E-03
    193 T   7 N     3.137409944642E-01  1.192525953970E-01  1.892788599605E-01
    194 F   7 N     1.862590055358E-01 -1.192525953970E-01 -3.107211400395E-01
    195 F   7 N     3.137409944642E-01 -1.192525953970E-01  3.107211400395E-01
    196 F   7 N     1.862590055358E-01  1.192525953970E-01 -1.892788599605E-01
    197 F   7 N     1.892788599605E-01  3.137409944642E-01  1.192525953970E-01
    198 F   7 N     1.192525953970E-01  1.892788599605E-01  3.137409944642E-01
    199 F   7 N    -1.892788599605E-01  1.862590055358E-01  1.192525953970E-01
    200 F   7 N    -1.192525953970E-01 -3.107211400395E-01  1.862590055358E-01
    201 F   7 N    -3.107211400395E-01  1.862590055358E-01 -1.192525953970E-01
    202 F   7 N    -1.192525953970E-01  3.107211400395E-01  3.137409944642E-01
    203 F   7 N     3.107211400395E-01  3.137409944642E-01 -1.192525953970E-01
    204 F   7 N     1.192525953970E-01 -1.892788599605E-01  1.862590055358E-01
    205 F   7 N    -1.307474046030E-01  6.374099446420E-02 -6.072114003950E-02
    206 F   7 N     1.307474046030E-01  4.362590055358E-01 -6.072114003950E-02
    207 F   7 N    -3.692525953970E-01  6.374099446420E-02  6.072114003950E-02
    208 F   7 N    -1.307474046030E-01 -6.374099446420E-02 -4.392788599605E-01
    209 F   7 N     6.374099446420E-02 -6.072114003950E-02 -1.307474046030E-01
    210 F   7 N    -6.072114003950E-02 -1.307474046030E-01  6.374099446420E-02
    211 F   7 N    -6.374099446420E-02 -4.392788599605E-01 -1.307474046030E-01
    212 F   7 N    -6.072114003950E-02  1.307474046030E-01  4.362590055358E-01
    213 F   7 N     4.362590055358E-01 -6.072114003950E-02  1.307474046030E-01
    214 F   7 N     6.072114003950E-02 -3.692525953970E-01  6.374099446420E-02
    215 F   7 N     6.374099446420E-02  6.072114003950E-02 -3.692525953970E-01
    216 F   7 N    -4.392788599605E-01 -1.307474046030E-01 -6.374099446420E-02
    217 T   7 N     2.013442723830E-01  1.768084187355E-01  2.489410054626E-01
    218 F   7 N     2.986557276170E-01 -1.768084187355E-01 -2.510589945374E-01
    219 F   7 N     2.013442723830E-01 -1.768084187355E-01  2.510589945374E-01
    220 F   7 N     2.986557276170E-01  1.768084187355E-01 -2.489410054626E-01
    221 F   7 N     2.489410054626E-01  2.013442723830E-01  1.768084187355E-01
    222 F   7 N     1.768084187355E-01  2.489410054626E-01  2.013442723830E-01
    223 F   7 N    -2.489410054626E-01  2.986557276170E-01  1.768084187355E-01
    224 F   7 N    -1.768084187355E-01 -2.510589945374E-01  2.986557276170E-01
    225 F   7 N    -2.510589945374E-01  2.986557276170E-01 -1.768084187355E-01
    226 F   7 N    -1.768084187355E-01  2.510589945374E-01  2.013442723830E-01
    227 F   7 N     2.510589945374E-01  2.013442723830E-01 -1.768084187355E-01
    228 F   7 N     1.768084187355E-01 -2.489410054626E-01  2.986557276170E-01
    229 F   7 N    -7.319158126450E-02 -4.865572761700E-02 -1.058994537400E-03
    230 F   7 N     7.319158126450E-02 -4.513442723830E-01 -1.058994537400E-03
    231 F   7 N    -4.268084187355E-01 -4.865572761700E-02  1.058994537400E-03
    232 F   7 N    -7.319158126450E-02  4.865572761700E-02 -4.989410054626E-01
    233 F   7 N    -4.865572761700E-02 -1.058994537400E-03 -7.319158126450E-02
    234 F   7 N    -1.058994537400E-03 -7.319158126450E-02 -4.865572761700E-02
    235 F   7 N     4.865572761700E-02 -4.989410054626E-01 -7.319158126450E-02
    236 F   7 N    -1.058994537400E-03  7.319158126450E-02 -4.513442723830E-01
    237 F   7 N    -4.513442723830E-01 -1.058994537400E-03  7.319158126450E-02
    238 F   7 N     1.058994537400E-03 -4.268084187355E-01 -4.865572761700E-02
    239 F   7 N    -4.865572761700E-02  1.058994537400E-03 -4.268084187355E-01
    240 F   7 N    -4.989410054626E-01 -7.319158126450E-02  4.865572761700E-02
    241 T   1 H     1.950199848386E-01  1.518977780488E-01  2.787678607050E-01
    242 F   1 H     3.049800151614E-01 -1.518977780488E-01 -2.212321392950E-01
    243 F   1 H     1.950199848386E-01 -1.518977780488E-01  2.212321392950E-01
    244 F   1 H     3.049800151614E-01  1.518977780488E-01 -2.787678607050E-01
    245 F   1 H     2.787678607050E-01  1.950199848386E-01  1.518977780488E-01
    246 F   1 H     1.518977780488E-01  2.787678607050E-01  1.950199848386E-01
    247 F   1 H    -2.787678607050E-01  3.049800151614E-01  1.518977780488E-01
    248 F   1 H    -1.518977780488E-01 -2.212321392950E-01  3.049800151614E-01
    249 F   1 H    -2.212321392950E-01  3.049800151614E-01 -1.518977780488E-01
    250 F   1 H    -1.518977780488E-01  2.212321392950E-01  1.950199848386E-01
    251 F   1 H     2.212321392950E-01  1.950199848386E-01 -1.518977780488E-01
    252 F   1 H     1.518977780488E-01 -2.787678607050E-01  3.049800151614E-01
    253 F   1 H    -9.810222195120E-02 -5.498001516140E-02  2.876786070500E-02
    254 F   1 H     9.810222195120E-02 -4.450199848386E-01  2.876786070500E-02
    255 F   1 H    -4.018977780488E-01 -5.498001516140E-02 -2.876786070500E-02
    256 F   1 H    -9.810222195120E-02  5.498001516140E-02  4.712321392950E-01
    257 F   1 H    -5.498001516140E-02  2.876786070500E-02 -9.810222195120E-02
    258 F   1 H     2.876786070500E-02 -9.810222195120E-02 -5.498001516140E-02
    259 F   1 H     5.498001516140E-02  4.712321392950E-01 -9.810222195120E-02
    260 F   1 H     2.876786070500E-02  9.810222195120E-02 -4.450199848386E-01
    261 F   1 H    -4.450199848386E-01  2.876786070500E-02  9.810222195120E-02
    262 F   1 H    -2.876786070500E-02 -4.018977780488E-01 -5.498001516140E-02
    263 F   1 H    -5.498001516140E-02 -2.876786070500E-02 -4.018977780488E-01
    264 F   1 H     4.712321392950E-01 -9.810222195120E-02  5.498001516140E-02
    265 T   6 C     3.750000000000E-01  0.000000000000E+00  2.500000000000E-01
    266 F   6 C     1.250000000000E-01 -3.602758083310E-17 -2.500000000000E-01
    267 F   6 C     2.500000000000E-01  3.750000000000E-01  7.205516166621E-17
    268 F   6 C    -1.080827424993E-16  2.500000000000E-01  3.750000000000E-01
    269 F   6 C    -2.500000000000E-01  1.250000000000E-01  0.000000000000E+00
    270 F   6 C    -1.801379041655E-17 -2.500000000000E-01  1.250000000000E-01

 T = ATOM BELONGING TO THE ASYMMETRIC UNIT

 ****   24 SYMMOPS - TRANSLATORS IN FRACTIONAL UNITS
 **** MATRICES AND TRANSLATORS IN THE CRYSTALLOGRAPHIC REFERENCE FRAME
   V INV                    ROTATION MATRICES                   TRANSLATORS
   1   1  1.00  0.00  0.00  0.00  1.00  0.00  0.00  0.00  1.00  0.00  0.00  0.00
   2   2  0.00  1.00 -1.00  1.00  0.00 -1.00  0.00  0.00 -1.00  0.50  0.00  0.50
   3   3 -1.00  0.00  0.00 -1.00  0.00  1.00 -1.00  1.00  0.00  0.50  0.50  0.00
   4   4  0.00 -1.00  1.00  0.00 -1.00  0.00  1.00 -1.00  0.00  0.00  0.50  0.50
   5   6  0.00  0.00  1.00  1.00  0.00  0.00  0.00  1.00  0.00  0.00  0.00  0.00
   6   5  0.00  1.00  0.00  0.00  0.00  1.00  1.00  0.00  0.00  0.00  0.00  0.00
   7   8  1.00 -1.00  0.00  0.00 -1.00  1.00  0.00 -1.00  0.00  0.50  0.00  0.50
   8   7  1.00  0.00 -1.00  0.00  0.00 -1.00  0.00  1.00 -1.00  0.00  0.50  0.50
   9  10  0.00  0.00 -1.00  0.00  1.00 -1.00  1.00  0.00 -1.00  0.50  0.50  0.00
  10   9 -1.00  0.00  1.00 -1.00  1.00  0.00 -1.00  0.00  0.00  0.50  0.00  0.50
  11  12 -1.00  1.00  0.00 -1.00  0.00  0.00 -1.00  0.00  1.00  0.00  0.50  0.50
  12  11  0.00 -1.00  0.00  1.00 -1.00  0.00  0.00 -1.00  1.00  0.50  0.50  0.00
  13  13  0.00  1.00  0.00  1.00  0.00  0.00  0.00  0.00  1.00  0.50  0.50  0.50
  14  14  1.00  0.00 -1.00  0.00  1.00 -1.00  0.00  0.00 -1.00  0.50  1.00  1.00
  15  16 -1.00  0.00  1.00 -1.00  0.00  0.00 -1.00  1.00  0.00  1.00  1.00  0.50
  16  15  0.00 -1.00  0.00  0.00 -1.00  1.00  1.00 -1.00  0.00  1.00  0.50  1.00
  17  17  1.00  0.00  0.00  0.00  0.00  1.00  0.00  1.00  0.00  0.50  0.50  0.50
  18  18  0.00  0.00  1.00  0.00  1.00  0.00  1.00  0.00  0.00  0.50  0.50  0.50
  19  21  0.00 -1.00  1.00  1.00 -1.00  0.00  0.00 -1.00  0.00  0.50  1.00  1.00
  20  22  0.00  0.00 -1.00  1.00  0.00 -1.00  0.00  1.00 -1.00  1.00  0.50  1.00
  21  19  0.00  1.00 -1.00  0.00  0.00 -1.00  1.00  0.00 -1.00  1.00  1.00  0.50
  22  20 -1.00  1.00  0.00 -1.00  0.00  1.00 -1.00  0.00  0.00  0.50  1.00  1.00
  23  23 -1.00  0.00  0.00 -1.00  1.00  0.00 -1.00  0.00  1.00  1.00  0.50  1.00
  24  24  1.00 -1.00  0.00  0.00 -1.00  0.00  0.00 -1.00  1.00  1.00  1.00  0.50

 DIRECT LATTICE VECTORS CARTESIAN COMPONENTS (ANGSTROM)
          X                    Y                    Z
  -0.130456657300E+02   0.130456657300E+02   0.130456657300E+02
   0.130456657300E+02  -0.130456657300E+02   0.130456657300E+02
   0.130456657300E+02   0.130456657300E+02  -0.130456657300E+02


 CARTESIAN COORDINATES - PRIMITIVE CELL
 *******************************************************************************
 *      ATOM          X(ANGSTROM)         Y(ANGSTROM)         Z(ANGSTROM)
 *******************************************************************************
    1     6 C     9.003457435168E+00  2.078140092005E+00  5.156972001364E+00
    2     6 C     4.042208294832E+00 -2.078140092005E+00 -7.888693728636E+00
    3     6 C     9.003457435168E+00 -2.078140092005E+00  7.888693728636E+00
    4     6 C     4.042208294832E+00  2.078140092005E+00 -5.156972001364E+00
    5     6 C     5.156972001364E+00  9.003457435168E+00  2.078140092005E+00
    6     6 C     2.078140092005E+00  5.156972001364E+00  9.003457435168E+00
    7     6 C    -5.156972001364E+00  4.042208294832E+00  2.078140092005E+00
    8     6 C    -2.078140092005E+00 -7.888693728636E+00  4.042208294832E+00
    9     6 C    -7.888693728636E+00  4.042208294832E+00 -2.078140092005E+00
   10     6 C    -2.078140092005E+00  7.888693728636E+00  9.003457435168E+00
   11     6 C     7.888693728636E+00  9.003457435168E+00 -2.078140092005E+00
   12     6 C     2.078140092005E+00 -5.156972001364E+00  4.042208294832E+00
   13     6 C    -4.444692772995E+00  2.480624570168E+00 -1.365860863636E+00
   14     6 C     4.444692772995E+00  1.056504115983E+01 -1.365860863636E+00
   15     6 C    -8.600972957005E+00  2.480624570168E+00  1.365860863636E+00
   16     6 C    -4.444692772995E+00 -2.480624570168E+00 -1.167980486636E+01
   17     6 C     2.480624570168E+00 -1.365860863636E+00 -4.444692772995E+00
   18     6 C    -1.365860863636E+00 -4.444692772995E+00  2.480624570168E+00
   19     6 C    -2.480624570168E+00 -1.167980486636E+01 -4.444692772995E+00
   20     6 C    -1.365860863636E+00  4.444692772995E+00  1.056504115983E+01
   21     6 C     1.056504115983E+01 -1.365860863636E+00  4.444692772995E+00
   22     6 C     1.365860863636E+00 -8.600972957005E+00  2.480624570168E+00
   23     6 C     2.480624570168E+00  1.365860863636E+00 -8.600972957005E+00
   24     6 C    -1.167980486636E+01 -4.444692772995E+00 -2.480624570168E+00
   25     1 H     9.800530703293E+00  1.921111515898E+00  4.416114725958E+00
   26     1 H     3.245135026707E+00 -1.921111515898E+00 -8.629551004042E+00
[...]
   57     6 C    -6.756863424725E+00  4.153497673815E+00 -1.193282158724E+00
   58     6 C    -1.193282158724E+00  6.756863424725E+00  8.822723059641E+00
   59     6 C     6.756863424725E+00  8.822723059641E+00 -1.193282158724E+00
   60     6 C     1.193282158724E+00 -6.219357308732E+00  4.153497673815E+00
   61     6 C    -5.294828208004E+00  2.334612692913E+00 -2.687530579967E-01
   62     6 C     5.294828208004E+00  1.064160804054E+01 -2.687530579967E-01
   63     6 C    -7.681392525452E+00  2.334612692913E+00  2.687530579967E-01
   64     6 C     7.681392525452E+00  1.064160804054E+01  2.687530579967E-01
   65     6 C     2.334612692913E+00 -2.687530579967E-01 -5.294828208004E+00
   66     6 C    -2.687530579967E-01 -5.294828208004E+00  2.334612692913E+00
   67     6 C     1.064160804054E+01  2.687530579967E-01  7.681392525452E+00
   68     6 C    -2.687530579967E-01  5.294828208004E+00  1.064160804054E+01
   69     6 C     1.064160804054E+01 -2.687530579967E-01  5.294828208004E+00
   70     6 C     2.687530579967E-01 -7.681392525452E+00  2.334612692913E+00
   71     6 C     2.334612692913E+00  2.687530579967E-01 -7.681392525452E+00
   72     6 C     2.687530579967E-01  7.681392525452E+00  1.064160804054E+01
   73     6 C     7.724904702466E+00  1.453852402820E+00  7.063082473463E+00
   74     6 C     5.251316030990E+00 -1.453852402820E+00 -5.913138259994E+00
   75     6 C     7.724904702466E+00 -1.453852402820E+00  5.913138259994E+00
   76     6 C     5.251316030990E+00  1.453852402820E+00 -7.063082473463E+00
   77     6 C     7.063082473463E+00  7.724904702466E+00  1.453852402820E+00
   78     6 C     1.453852402820E+00  7.063082473463E+00  7.724904702466E+00
   79     6 C    -7.063082473463E+00  5.251316030990E+00  1.453852402820E+00
   80     6 C    -1.453852402820E+00 -5.913138259994E+00  5.251316030990E+00
   81     6 C    -5.913138259994E+00  5.251316030990E+00 -1.453852402820E+00
   82     6 C    -1.453852402820E+00  5.913138259994E+00  7.724904702466E+00
   83     6 C     5.913138259994E+00  7.724904702466E+00 -1.453852402820E+00
   84     6 C     1.453852402820E+00 -7.063082473463E+00  5.251316030990E+00
   85     6 C    -5.034257963908E+00  1.236794335738E+00  5.749721067346E-01
   86     6 C     5.034257963908E+00  1.173942639772E+01  5.749721067346E-01
   87     6 C    -7.941962769549E+00  1.236794335738E+00 -5.749721067346E-01
   88     6 C    -5.034257963908E+00 -1.236794335738E+00  1.240124862672E+01
   89     6 C     1.236794335738E+00  5.749721067346E-01 -5.034257963908E+00
   90     6 C     5.749721067346E-01 -5.034257963908E+00  1.236794335738E+00
   91     6 C    -1.236794335738E+00  1.240124862672E+01 -5.034257963908E+00
   92     6 C     5.749721067346E-01  5.034257963908E+00  1.173942639772E+01
   93     6 C     1.173942639772E+01  5.749721067346E-01  5.034257963908E+00
   94     6 C    -5.749721067346E-01 -7.941962769549E+00  1.236794335738E+00
   95     6 C     1.236794335738E+00 -5.749721067346E-01 -7.941962769549E+00
   96     6 C     1.240124862672E+01 -5.034257963908E+00 -1.236794335738E+00
   97     1 H     7.514527744724E+00  7.760861470035E-01  7.896265195851E+00
   98     1 H     5.461692988733E+00 -7.760861470035E-01 -5.079955537605E+00
   99     1 H     7.514527744724E+00 -7.760861470035E-01  5.079955537605E+00
  100     1 H     5.461692988733E+00  7.760861470035E-01 -7.896265195851E+00
  101     1 H     7.896265195851E+00  7.514527744724E+00  7.760861470035E-01
  102     1 H     7.760861470035E-01  7.896265195851E+00  7.514527744724E+00
  103     1 H    -7.896265195851E+00  5.461692988733E+00  7.760861470035E-01
  104     1 H    -7.760861470035E-01 -5.079955537605E+00  5.461692988733E+00
  105     1 H    -5.079955537605E+00  5.461692988733E+00 -7.760861470035E-01
  106     1 H    -7.760861470035E-01  5.079955537605E+00  7.514527744724E+00
  107     1 H     5.079955537605E+00  7.514527744724E+00 -7.760861470035E-01
  108     1 H     7.760861470035E-01 -7.896265195851E+00  5.461692988733E+00
  109     1 H    -5.712024219725E+00  1.026417377995E+00  1.408154829123E+00
  110     1 H     5.712024219725E+00  1.194980335546E+01  1.408154829123E+00
  111     1 H    -7.264196513732E+00  1.026417377995E+00 -1.408154829123E+00
  112     1 H    -5.712024219725E+00 -1.026417377995E+00  1.156806590433E+01
  113     1 H     1.026417377995E+00  1.408154829123E+00 -5.712024219725E+00
  114     1 H     1.408154829123E+00 -5.712024219725E+00  1.026417377995E+00
  115     1 H    -1.026417377995E+00  1.156806590433E+01 -5.712024219725E+00
  116     1 H     1.408154829123E+00  5.712024219725E+00  1.194980335546E+01
  117     1 H     1.194980335546E+01  1.408154829123E+00  5.712024219725E+00
  118     1 H    -1.408154829123E+00 -7.264196513732E+00  1.026417377995E+00
  119     1 H     1.026417377995E+00 -1.408154829123E+00 -7.264196513732E+00
  120     1 H     1.156806590433E+01 -5.712024219725E+00 -1.026417377995E+00
  121     7 N     6.894714784155E+00  2.465864431335E+00  6.896971409227E+00
  122     7 N     6.081505949302E+00 -2.465864431335E+00 -6.079249324229E+00
  123     7 N     6.894714784155E+00 -2.465864431335E+00  6.079249324229E+00
  124     7 N     6.081505949302E+00  2.465864431335E+00 -6.896971409227E+00
  125     7 N     6.896971409227E+00  6.894714784155E+00  2.465864431335E+00
  126     7 N     2.465864431335E+00  6.896971409227E+00  6.894714784155E+00
  127     7 N    -6.896971409227E+00  6.081505949302E+00  2.465864431335E+00
  128     7 N    -2.465864431335E+00 -6.079249324229E+00  6.081505949302E+00
  129     7 N    -6.079249324229E+00  6.081505949302E+00 -2.465864431335E+00
  130     7 N    -2.465864431335E+00  6.079249324229E+00  6.894714784155E+00
  131     7 N     6.079249324229E+00  6.894714784155E+00 -2.465864431335E+00
  132     7 N     2.465864431335E+00 -6.896971409227E+00  6.081505949302E+00
  133     7 N    -4.022245935393E+00  4.066044174266E-01  4.088610424990E-01
  134     7 N     4.022245935393E+00  1.256961631603E+01  4.088610424991E-01
  135     7 N    -8.953974798063E+00  4.066044174266E-01 -4.088610424990E-01
  136     7 N    -4.022245935393E+00 -4.066044174266E-01  1.256735969096E+01
  137     7 N     4.066044174266E-01  4.088610424990E-01 -4.022245935393E+00
  138     7 N     4.088610424990E-01 -4.022245935393E+00  4.066044174266E-01
  139     7 N    -4.066044174266E-01  1.256735969096E+01 -4.022245935393E+00
  140     7 N     4.088610424990E-01  4.022245935393E+00  1.256961631603E+01
  141     7 N     1.256961631603E+01  4.088610424991E-01  4.022245935393E+00
  142     7 N    -4.088610424990E-01 -8.953974798063E+00  4.066044174266E-01
  143     7 N     4.066044174266E-01 -4.088610424990E-01 -8.953974798063E+00
  144     7 N     1.256735969096E+01 -4.022245935393E+00 -4.066044174266E-01
  145     6 C     7.139804120002E+00  3.263642445386E+00  5.822729134005E+00
  146     6 C     5.836416613455E+00 -3.263642445386E+00 -7.153491599451E+00
  147     6 C     7.139804120002E+00 -3.263642445386E+00  7.153491599451E+00
  148     6 C     5.836416613455E+00  3.263642445386E+00 -5.822729134005E+00
  149     6 C     5.822729134005E+00  7.139804120002E+00  3.263642445386E+00
  150     6 C     3.263642445386E+00  5.822729134005E+00  7.139804120002E+00
  151     6 C    -5.822729134005E+00  5.836416613455E+00  3.263642445386E+00
  152     6 C    -3.263642445386E+00 -7.153491599451E+00  5.836416613455E+00
  153     6 C    -7.153491599451E+00  5.836416613455E+00 -3.263642445386E+00
  154     6 C    -3.263642445386E+00  7.153491599451E+00  7.139804120002E+00
  155     6 C     7.153491599451E+00  7.139804120002E+00 -3.263642445386E+00
  156     6 C     3.263642445386E+00 -5.822729134005E+00  5.836416613455E+00
  157     6 C    -3.224467921342E+00  6.516937532736E-01 -6.653812327230E-01
  158     6 C     3.224467921342E+00  1.232452698018E+01 -6.653812327230E-01
  159     6 C    -9.751752812114E+00  6.516937532736E-01  6.653812327230E-01
  160     6 C    -3.224467921342E+00 -6.516937532736E-01 -1.231083950073E+01
  161     6 C     6.516937532736E-01 -6.653812327230E-01 -3.224467921342E+00
  162     6 C    -6.653812327230E-01 -3.224467921342E+00  6.516937532736E-01
  163     6 C    -6.516937532736E-01 -1.231083950073E+01 -3.224467921342E+00
  164     6 C    -6.653812327230E-01  3.224467921342E+00  1.232452698018E+01
  165     6 C     1.232452698018E+01 -6.653812327230E-01  3.224467921342E+00
  166     6 C     6.653812327230E-01 -9.751752812114E+00  6.516937532736E-01
  167     6 C     6.516937532736E-01  6.653812327230E-01 -9.751752812114E+00
  168     6 C    -1.231083950073E+01 -3.224467921342E+00 -6.516937532736E-01
  169     6 C     6.274095671583E+00  4.354582682696E+00  5.623304537454E+00
  170     6 C     6.702125061874E+00 -4.354582682696E+00 -7.352916196003E+00
  171     6 C     6.274095671583E+00 -4.354582682696E+00  7.352916196003E+00
  172     6 C     6.702125061874E+00  4.354582682696E+00 -5.623304537454E+00
  173     6 C     5.623304537454E+00  6.274095671583E+00  4.354582682696E+00
  174     6 C     4.354582682696E+00  5.623304537454E+00  6.274095671583E+00
  175     6 C    -5.623304537454E+00  6.702125061874E+00  4.354582682696E+00
  176     6 C    -4.354582682696E+00 -7.352916196003E+00  6.702125061874E+00
  177     6 C    -7.352916196003E+00  6.702125061874E+00 -4.354582682696E+00
  178     6 C    -4.354582682696E+00  7.352916196003E+00  6.274095671583E+00
  179     6 C     7.352916196003E+00  6.274095671583E+00 -4.354582682696E+00
  180     6 C     4.354582682696E+00 -5.623304537454E+00  6.702125061874E+00
  181     6 C    -2.133527684032E+00 -2.140146951454E-01 -8.648058292743E-01
  182     6 C     2.133527684032E+00 -1.276220603831E+01 -8.648058292743E-01
  183     6 C    -1.084269304942E+01 -2.140146951454E-01  8.648058292743E-01
  184     6 C    -2.133527684032E+00  2.140146951454E-01 -1.211141490418E+01
  185     6 C    -2.140146951454E-01 -8.648058292743E-01 -2.133527684032E+00
  186     6 C    -8.648058292743E-01 -2.133527684032E+00 -2.140146951454E-01
  187     6 C     2.140146951454E-01 -1.211141490418E+01 -2.133527684032E+00
  188     6 C    -8.648058292743E-01  2.133527684032E+00 -1.276220603831E+01
  189     6 C    -1.276220603831E+01 -8.648058292743E-01  2.133527684032E+00
  190     6 C     8.648058292743E-01 -1.084269304942E+01 -2.140146951454E-01
  191     6 C    -2.140146951454E-01  8.648058292743E-01 -1.084269304942E+01
  192     6 C    -1.211141490418E+01 -2.133527684032E+00  2.140146951454E-01
  193     7 N     8.133393180626E+00  3.088451214820E+00  4.916602917352E+00
  194     7 N     4.842827552831E+00 -3.088451214820E+00 -8.059617816105E+00
  195     7 N     8.133393180626E+00 -3.088451214820E+00  8.059617816105E+00
  196     7 N     4.842827552831E+00  3.088451214820E+00 -4.916602917352E+00
  197     7 N     4.916602917352E+00  8.133393180626E+00  3.088451214820E+00
  198     7 N     3.088451214820E+00  4.916602917352E+00  8.133393180626E+00
  199     7 N    -4.916602917352E+00  4.842827552831E+00  3.088451214820E+00
  200     7 N    -3.088451214820E+00 -8.059617816105E+00  4.842827552831E+00
  201     7 N    -8.059617816105E+00  4.842827552831E+00 -3.088451214820E+00
  202     7 N    -3.088451214820E+00  8.059617816105E+00  8.133393180626E+00
  203     7 N     8.059617816105E+00  8.133393180626E+00 -3.088451214820E+00
  204     7 N     3.088451214820E+00 -4.916602917352E+00  4.842827552831E+00
  205     7 N    -3.399659151908E+00  1.645282813897E+00 -1.571507449377E+00
  206     7 N     3.399659151908E+00  1.133093791956E+01 -1.571507449377E+00
  207     7 N    -9.576561581548E+00  1.645282813897E+00  1.571507449377E+00
  208     7 N    -3.399659151908E+00 -1.645282813897E+00 -1.140471328408E+01
  209     7 N     1.645282813897E+00 -1.571507449377E+00 -3.399659151908E+00
  210     7 N    -1.571507449377E+00 -3.399659151908E+00  1.645282813897E+00
  211     7 N    -1.645282813897E+00 -1.140471328408E+01 -3.399659151908E+00
  212     7 N    -1.571507449377E+00  3.399659151908E+00  1.133093791956E+01
  213     7 N     1.133093791956E+01 -1.571507449377E+00  3.399659151908E+00
  214     7 N     1.571507449377E+00 -9.576561581548E+00  1.645282813897E+00
  215     7 N     1.645282813897E+00  1.571507449377E+00 -9.576561581548E+00
  216     7 N    -1.140471328408E+01 -3.399659151908E+00 -1.645282813897E+00
  217     7 N     5.219417063639E+00  4.585517848198E+00  6.454692033413E+00
  218     7 N     7.756803669818E+00 -4.585517848198E+00 -6.521528700044E+00
  219     7 N     5.219417063639E+00 -4.585517848198E+00  6.521528700044E+00
  220     7 N     7.756803669818E+00  4.585517848198E+00 -6.454692033413E+00
  221     7 N     6.454692033413E+00  5.219417063639E+00  4.585517848198E+00
  222     7 N     4.585517848198E+00  6.454692033413E+00  5.219417063639E+00
  223     7 N    -6.454692033413E+00  7.756803669818E+00  4.585517848198E+00
  224     7 N    -4.585517848198E+00 -6.521528700044E+00  7.756803669818E+00
  225     7 N    -6.521528700044E+00  7.756803669818E+00 -4.585517848198E+00
  226     7 N    -4.585517848198E+00  6.521528700044E+00  5.219417063639E+00
  227     7 N     6.521528700044E+00  5.219417063639E+00 -4.585517848198E+00
  228     7 N     4.585517848198E+00 -6.454692033413E+00  7.756803669818E+00
  229     7 N    -1.902592518530E+00 -1.268693303089E+00 -3.341833331561E-02
  230     7 N     1.902592518530E+00 -1.170752743037E+01 -3.341833331561E-02
  231     7 N    -1.107362821493E+01 -1.268693303089E+00  3.341833331561E-02
  232     7 N    -1.902592518530E+00  1.268693303089E+00 -1.294280240014E+01
  233     7 N    -1.268693303089E+00 -3.341833331561E-02 -1.902592518530E+00
  234     7 N    -3.341833331561E-02 -1.902592518530E+00 -1.268693303089E+00
  235     7 N     1.268693303089E+00 -1.294280240014E+01 -1.902592518530E+00
  236     7 N    -3.341833331561E-02  1.902592518530E+00 -1.170752743037E+01
  237     7 N    -1.170752743037E+01 -3.341833331561E-02  1.902592518530E+00
  238     7 N     3.341833331562E-02 -1.107362821493E+01 -1.268693303089E+00
  239     7 N    -1.268693303089E+00  3.341833331561E-02 -1.107362821493E+01
  240     7 N    -1.294280240014E+01 -1.902592518530E+00  1.268693303089E+00
  241     1 H     5.056319333132E+00  3.944556650487E+00  7.229009190539E+00
  242     1 H     7.919901400325E+00 -3.944556650487E+00 -5.747211542917E+00
  243     1 H     5.056319333132E+00 -3.944556650487E+00  5.747211542917E+00
  244     1 H     7.919901400325E+00  3.944556650487E+00 -7.229009190539E+00
  245     1 H     7.229009190539E+00  5.056319333132E+00  3.944556650487E+00
  246     1 H     3.944556650487E+00  7.229009190539E+00  5.056319333132E+00
  247     1 H    -7.229009190539E+00  7.919901400325E+00  3.944556650487E+00
  248     1 H    -3.944556650487E+00 -5.747211542917E+00  7.919901400325E+00
  249     1 H    -5.747211542917E+00  7.919901400325E+00 -3.944556650487E+00
  250     1 H    -3.944556650487E+00  5.747211542917E+00  5.056319333132E+00
  251     1 H     5.747211542917E+00  5.056319333132E+00 -3.944556650487E+00
  252     1 H     3.944556650487E+00 -7.229009190539E+00  7.919901400325E+00
  253     1 H    -2.543553716242E+00 -1.431791033597E+00  7.408988238113E-01
  254     1 H     2.543553716242E+00 -1.154442969986E+01  7.408988238112E-01
  255     1 H    -1.043266701721E+01 -1.431791033597E+00 -7.408988238113E-01
  256     1 H    -2.543553716242E+00  1.431791033597E+00  1.223532190965E+01
  257     1 H    -1.431791033597E+00  7.408988238113E-01 -2.543553716242E+00
  258     1 H     7.408988238113E-01 -2.543553716242E+00 -1.431791033597E+00
  259     1 H     1.431791033597E+00  1.223532190965E+01 -2.543553716242E+00
  260     1 H     7.408988238113E-01  2.543553716242E+00 -1.154442969986E+01
  261     1 H    -1.154442969986E+01  7.408988238113E-01  2.543553716242E+00
  262     1 H    -7.408988238113E-01 -1.043266701721E+01 -1.431791033597E+00
  263     1 H    -1.431791033597E+00 -7.408988238113E-01 -1.043266701721E+01
  264     1 H     1.223532190965E+01 -2.543553716242E+00  1.431791033597E+00
  265     6 C     9.732165550092E+00 -1.818554833164E-21  6.488110366728E+00
  266     6 C     3.244055183364E+00 -9.350055013204E-16 -6.488110366728E+00
  267     6 C     6.488110366728E+00  9.732165550092E+00  1.870007365531E-15
  268     6 C    -2.805012866852E-15  6.488110366728E+00  9.732165550092E+00
  269     6 C    -6.488110366728E+00  3.244055183364E+00  0.000000000000E+00
  270     6 C    -4.675036599376E-16 -6.488110366728E+00  3.244055183364E+00

 ****   24 SYMMOPS - TRANSLATORS IN FRACTIONAL UNITS
 **** MATRICES AND TRANSLATORS IN THE CRYSTALLOGRAPHIC REFERENCE FRAME
   V INV                    ROTATION MATRICES                   TRANSLATORS
   1   1  1.00  0.00  0.00  0.00  1.00  0.00  0.00  0.00  1.00  0.00  0.00  0.00
   2   2  0.00  1.00 -1.00  1.00  0.00 -1.00  0.00  0.00 -1.00  0.50  0.00  0.50
   3   3 -1.00  0.00  0.00 -1.00  0.00  1.00 -1.00  1.00  0.00  0.50  0.50  0.00
   4   4  0.00 -1.00  1.00  0.00 -1.00  0.00  1.00 -1.00  0.00  0.00  0.50  0.50
   5   6  0.00  0.00  1.00  1.00  0.00  0.00  0.00  1.00  0.00  0.00  0.00  0.00
   6   5  0.00  1.00  0.00  0.00  0.00  1.00  1.00  0.00  0.00  0.00  0.00  0.00
   7   8  1.00 -1.00  0.00  0.00 -1.00  1.00  0.00 -1.00  0.00  0.50  0.00  0.50
   8   7  1.00  0.00 -1.00  0.00  0.00 -1.00  0.00  1.00 -1.00  0.00  0.50  0.50
   9  10  0.00  0.00 -1.00  0.00  1.00 -1.00  1.00  0.00 -1.00  0.50  0.50  0.00
  10   9 -1.00  0.00  1.00 -1.00  1.00  0.00 -1.00  0.00  0.00  0.50  0.00  0.50
  11  12 -1.00  1.00  0.00 -1.00  0.00  0.00 -1.00  0.00  1.00  0.00  0.50  0.50
  12  11  0.00 -1.00  0.00  1.00 -1.00  0.00  0.00 -1.00  1.00  0.50  0.50  0.00
  13  13  0.00  1.00  0.00  1.00  0.00  0.00  0.00  0.00  1.00  0.50  0.50  0.50
  14  14  1.00  0.00 -1.00  0.00  1.00 -1.00  0.00  0.00 -1.00  0.50  1.00  1.00
  15  16 -1.00  0.00  1.00 -1.00  0.00  0.00 -1.00  1.00  0.00  1.00  1.00  0.50
  16  15  0.00 -1.00  0.00  0.00 -1.00  1.00  1.00 -1.00  0.00  1.00  0.50  1.00
  17  17  1.00  0.00  0.00  0.00  0.00  1.00  0.00  1.00  0.00  0.50  0.50  0.50
  18  18  0.00  0.00  1.00  0.00  1.00  0.00  1.00  0.00  0.00  0.50  0.50  0.50
  19  21  0.00 -1.00  1.00  1.00 -1.00  0.00  0.00 -1.00  0.00  0.50  1.00  1.00
  20  22  0.00  0.00 -1.00  1.00  0.00 -1.00  0.00  1.00 -1.00  1.00  0.50  1.00
  21  19  0.00  1.00 -1.00  0.00  0.00 -1.00  1.00  0.00 -1.00  1.00  1.00  0.50
  22  20 -1.00  1.00  0.00 -1.00  0.00  1.00 -1.00  0.00  0.00  0.50  1.00  1.00
  23  23 -1.00  0.00  0.00 -1.00  1.00  0.00 -1.00  0.00  1.00  1.00  0.50  1.00
  24  24  1.00 -1.00  0.00  0.00 -1.00  0.00  0.00 -1.00  1.00  1.00  1.00  0.50
 TTTTTTTTTTTTTTTTTTTTTTTTTTTTTT END         TELAPSE   185685.19 TCPU   136090.66
 MMMMM END         USED MEM(MB)   2638.68 MAX MEM   2776.66 TOT MEM     84437.90
 EEEEEEEEEE TERMINATION  DATE 07 12 2024 TIME 18:35:56.3
NODE    0 CPU TIME =    136090.657
NODE    1 CPU TIME =    136528.273
NODE    2 CPU TIME =    136598.157
NODE    3 CPU TIME =    137033.114
NODE    4 CPU TIME =    136540.961
NODE    5 CPU TIME =    136824.872
NODE    6 CPU TIME =    136079.804
NODE    7 CPU TIME =    136249.517
NODE    8 CPU TIME =    137087.533
NODE    9 CPU TIME =    136606.972
NODE   10 CPU TIME =    137277.659
NODE   11 CPU TIME =    137075.808
NODE   12 CPU TIME =    136413.083
NODE   13 CPU TIME =    137114.931
NODE   14 CPU TIME =    136493.563
NODE   15 CPU TIME =    136767.053
NODE   16 CPU TIME =    136238.119
NODE   17 CPU TIME =    135878.123
NODE   18 CPU TIME =    136239.726
NODE   19 CPU TIME =    136872.801
NODE   20 CPU TIME =    136290.126
NODE   21 CPU TIME =    135704.405
NODE   22 CPU TIME =    136632.061
NODE   23 CPU TIME =    136479.598
NODE   24 CPU TIME =    136232.646
NODE   25 CPU TIME =    136624.826
NODE   26 CPU TIME =    136152.977
NODE   27 CPU TIME =    135747.919
NODE   28 CPU TIME =    136473.178
NODE   29 CPU TIME =    136143.197
NODE   30 CPU TIME =    135846.631
NODE   31 CPU TIME =    136612.392
    TOTAL CPU TIME =   4366950.684
