 PROCESS           21  OF           32  WORKING
 PROCESS            1  OF           32  WORKING
 PROCESS            2  OF           32  WORKING
 PROCESS            3  OF           32  WORKING
 PROCESS            4  OF           32  WORKING
 PROCESS            5  OF           32  WORKING
 PROCESS            9  OF           32  WORKING
 PROCESS           10  OF           32  WORKING
 PROCESS           11  OF           32  WORKING
 PROCESS           17  OF           32  WORKING
 PROCESS           19  OF           32  WORKING
 PROCESS           22  OF           32  WORKING
 PROCESS           28  OF           32  WORKING
 PROCESS           29  OF           32  WORKING
 PROCESS           31  OF           32  WORKING
 PROCESS            6  OF           32  WORKING
 PROCESS            7  OF           32  WORKING
 PROCESS            8  OF           32  WORKING
 PROCESS           13  OF           32  WORKING
 PROCESS           24  OF           32  WORKING
 PROCESS           30  OF           32  WORKING
 PROCESS           14  OF           32  WORKING
 PROCESS           15  OF           32  WORKING
 PROCESS           16  OF           32  WORKING
 PROCESS           18  OF           32  WORKING
 PROCESS           20  OF           32  WORKING
 PROCESS           25  OF           32  WORKING
 PROCESS            0  OF           32  WORKING

         
 *******************************************************************************
 *                                                                             *
 *                               CRYSTAL17                                     *
 *                      public : 1.0.2 - March 1st, 2018                       *
 *                       HTTP://WWW.CRYSTAL.UNITO.IT                           *
 *                                                                             *
 *                              MAIN AUTHORS                                   *
 *                                                                             *
 *  R. DOVESI(1,11), V.R. SAUNDERS(2), C. ROETTI(1,11), R. ORLANDO(1,11),      *
 *  C.M. ZICOVICH-WILSON(1,3), F. PASCALE(4), B. CIVALLERI(1,11),              *
 *  K. DOLL(5), N.M. HARRISON(2,6), I.J. BUSH(7), Ph. D'ARCO(8),               *
 *  M. LLUNELL(9), M. CAUSA'(10), Y. NOEL(8), L. MASCHIO(1,11), A. ERBA(1,11)  *
 *  M. RE'RAT(14), S. CASASSA(1,11)                                            *
 *                                                                             *
 *        CONTRIBUTIONS TO THE CODE HAVE ALSO BEEN GIVEN BY                    *
 *                                                                             *
 *  M. FERRABONE(1,11), M. DE LA PIERRE(1,11), M. FERRERO(1,11),               *
 *  J. BAIMA(1,11), E. ALBANESE(1,11), M.F. PEINTINGER(12), R. BAST(13),       *
 *  B. KIRTMAN(15), V. LACIVITA(1,11), R. DEMICHELIS(1,16)                     *
 *  G. BRANDEBURG(17), S. SALUSTRO(1,11), G. SANSONE(1,11)                     *
 *  M.T. RUGGIERO(18)                                                          *
 *                                                                             *
 * (1) THEORETICAL CHEMISTRY GROUP - UNIVERSITA' DI TORINO - TORINO (ITALY)    *
 * (2) COMPUTATIONAL SCIENCE & ENGINEERING DEPARTMENT - STFC DARESBURY (UK)    *
 * (3) UNIVERSIDAD AUTONOMA DEL ESTADO DE MORELOS - CUERNAVACA (MEXICO)        *
 * (4) UNIVERSITE' DE LORRAINE - NANCY (FRANCE)                                *
 * (5) UNIVERSITAET STUTTGART- STUTTGART (GERMANY)                             *
 * (6) IMPERIAL COLLEGE - LONDON (UK)                                          *
 * (7) OXFORD E-RESEARCH CENTRE - OXFORD (UK)                                  *
 * (8) UPMC - SORBONNE UNIVERSITES - PARIS (FRANCE)                            *
 * (9) UNIVERSIDAD DE BARCELONA - BARCELONA (SPAIN)                            *
 *(10) UNIVERSITA' DI NAPOLI "FEDERICO II" - NAPOLI (ITALY)                    *
 *(11) NIS - NANOSTRUCTURED INTERFACES AND SURFACES - TORINO (ITALY)           *
 *(12) MPI FUER CHEMISCHE ENERGIEKONVERSION - MUELHEIM AN DER RUHR (GERMANY)   *
 *(13) UNIVERSITY OF TROMSO - TROMSO (NORWAY)                                  *
 *(14) UNIVERSITE' DE PAU ET DES PAYS DE L'ADOUR - PAU (FRANCE)                *
 *(15) UNIVERSITY OF CALIFORNIA SANTA BARBARA - SANTA BARBARA (USA)            *
 *(16) CURTIN UNIVERSITY - PERTH (AUSTRALIA)                                   *
 *(17) UNIVERSITY COLLEGE LONDON - LONDON (UK)                                 *
 *(18) CAMBRIDGE UNIVERSITY - CAMBRIDGE (UK)                                   *
 *                                                                             *
 *******************************************************************************
 EEEEEEEEEE STARTING  DATE 23 07 2024 TIME 17:22:53.6
 IRCOF102                                                                        

 CRYSTAL CALCULATION
 (INPUT ACCORDING TO THE INTERNATIONAL TABLES FOR X-RAY CRYSTALLOGRAPHY)
 CRYSTAL FAMILY                       :  CUBIC       
 CRYSTAL CLASS  (GROTH - 1921)        :  CUBIC HEXAKISTETRAHEDRAL             

 SPACE GROUP (NONCENTROSYMMETRIC)     :  I -4 3 D        

 LATTICE PARAMETERS  (ANGSTROMS AND DEGREES) - CONVENTIONAL CELL
        A           B           C        ALPHA        BETA       GAMMA
    43.17285    43.17285    43.17285    90.00000    90.00000    90.00000


 NUMBER OF IRREDUCIBLE ATOMS IN THE CONVENTIONAL CELL:   23

 INPUT COORDINATES

 ATOM AT. N.              COORDINATES
   1   8     2.103945732462E-01 -1.955493285655E-01  2.599509001939E-01
   2   1     4.915649749092E-02 -2.085563665006E-01  1.177639674043E-01
   3   1     1.089633726375E-01 -2.803994954418E-01  2.222139732237E-01
   4   1     9.628187729162E-02 -2.036497820184E-01  1.499596237883E-01
   5   1     1.384406283204E-02 -2.783667983460E-01  1.797550175284E-01
   6   1     1.538458250148E-01 -2.724475392405E-01  2.575377022976E-01
   7   1     6.010938994405E-02 -2.721940923190E-01  2.132547521287E-01
   8   6     2.853874425459E-02 -2.446077588006E-01  1.457374561891E-01
   9   6     3.235412385252E-02 -2.623493673830E-01  1.729290097999E-01
  10   6     5.845786145930E-02 -2.588935431872E-01  1.916952200383E-01
  11   6     7.815820501457E-02 -2.200065991614E-01  1.569163953528E-01
  12   6     8.208736468757E-02 -2.376253890972E-01  1.840879255066E-01
  13   6     1.515699948305E-01 -2.011349324356E-01  2.238078125322E-01
  14   6     5.185423038470E-02 -2.232121515180E-01  1.383034965614E-01
  15   1     1.638511582031E-01 -1.788989275576E-01  2.240666955241E-01
  16   6     1.204518900264E-01 -2.577751747052E-01  2.231635540483E-01
  17   6     1.621553371817E-01 -2.251448761664E-01  2.432542944289E-01
  18   1     1.169704510310E-01 -1.855329871490E-01  1.912118428859E-01
  19   6     1.255582513749E-01 -2.050180583159E-01  2.050337898815E-01
  20   6     1.095416032480E-01 -2.335137127532E-01  2.041475483042E-01
  21   6     1.459049040901E-01 -2.534727342406E-01  2.426281929669E-01
  22   5     1.902360138164E-01 -2.202068828332E-01  2.648009940418E-01
  23   6     2.500000000000E-01  3.750000000000E-01 -4.354764821517E-17

 *******************************************************************************

 << INFORMATION >>: FROM NOW ON, ALL COORDINATES REFER TO THE PRIMITIVE CELL

 *******************************************************************************

 LATTICE PARAMETERS  (ANGSTROMS AND DEGREES) - PRIMITIVE CELL
       A          B          C        ALPHA      BETA     GAMMA        VOLUME
   37.38878   37.38878   37.38878   109.47122 109.47122 109.47122  40234.828181
 PROCESS           23  OF           32  WORKING
 PROCESS           26  OF           32  WORKING
 PROCESS           27  OF           32  WORKING

 COORDINATES OF THE EQUIVALENT ATOMS (FRACTIONAL UNITS)

 N. ATOM EQUIV AT. N.          X                  Y                  Z

   1   1   1    8 O     6.44015716284E-02  4.70345473440E-01  1.48452446807E-02
   2   1   2    8 O    -4.44997712406E-02  4.95563269477E-02  4.85154755319E-01
   3   1   3    8 O     4.35598428372E-01  4.50443673052E-01  4.05943901812E-01
   4   1   4    8 O    -4.55500228759E-01  2.96545265599E-02  9.40560981883E-02
   5   1   5    8 O     1.48452446807E-02  6.44015716284E-02  4.70345473440E-01
   6   1   6    8 O     4.70345473440E-01  1.48452446807E-02  6.44015716284E-02
   7   1   7    8 O     9.40560981883E-02 -4.55500228759E-01  2.96545265599E-02
   8   1   8    8 O     4.95563269477E-02  4.85154755319E-01 -4.44997712406E-02
   9   1   9    8 O     4.85154755319E-01 -4.44997712406E-02  4.95563269477E-02
  10   1  10    8 O     4.50443673052E-01  4.05943901812E-01  4.35598428372E-01
  11   1  11    8 O     4.05943901812E-01  4.35598428372E-01  4.50443673052E-01
  12   1  12    8 O     2.96545265599E-02  9.40560981883E-02 -4.55500228759E-01
  13   1  13    8 O    -2.96545265599E-02 -4.35598428372E-01 -4.85154755319E-01
  14   1  14    8 O    -4.50443673052E-01  4.55500228759E-01 -1.48452446807E-02
  15   1  15    8 O    -4.95563269477E-02 -6.44015716284E-02 -9.40560981883E-02
  16   1  16    8 O    -4.70345473440E-01  4.44997712406E-02 -4.05943901812E-01
  17   1  17    8 O    -4.35598428372E-01 -4.85154755319E-01 -2.96545265599E-02
  18   1  18    8 O    -4.85154755319E-01 -2.96545265599E-02 -4.35598428372E-01
  19   1  19    8 O     4.44997712406E-02 -4.05943901812E-01 -4.70345473440E-01
  20   1  20    8 O    -1.48452446807E-02 -4.50443673052E-01  4.55500228759E-01
  21   1  21    8 O     4.55500228759E-01 -1.48452446807E-02 -4.50443673052E-01
  22   1  22    8 O    -9.40560981883E-02 -4.95563269477E-02 -6.44015716284E-02
  23   1  23    8 O    -6.44015716284E-02 -9.40560981883E-02 -4.95563269477E-02
  24   1  24    8 O    -4.05943901812E-01 -4.70345473440E-01  4.44997712406E-02

  25   2   1    1 H    -9.07923990963E-02  1.66920464895E-01 -1.59399869010E-01
  26   2   2    1 H    -1.73679666095E-01  6.86074699134E-02 -3.40600130990E-01
  27   2   3    1 H    -4.09207600904E-01  4.31392530087E-01  2.57712863992E-01
  28   2   4    1 H    -3.26320333905E-01  3.33079535105E-01  2.42287136008E-01
  29   2   5    1 H    -1.59399869010E-01 -9.07923990963E-02  1.66920464895E-01
  30   2   6    1 H     1.66920464895E-01 -1.59399869010E-01 -9.07923990963E-02
  31   2   7    1 H     2.42287136008E-01 -3.26320333905E-01  3.33079535105E-01
  32   2   8    1 H     6.86074699134E-02 -3.40600130990E-01 -1.73679666095E-01
  33   2   9    1 H    -3.40600130990E-01 -1.73679666095E-01  6.86074699134E-02
  34   2  10    1 H     4.31392530087E-01  2.57712863992E-01 -4.09207600904E-01
  35   2  11    1 H     2.57712863992E-01 -4.09207600904E-01  4.31392530087E-01
  36   2  12    1 H     3.33079535105E-01  2.42287136008E-01 -3.26320333905E-01
  37   2  13    1 H    -3.33079535105E-01  4.09207600904E-01  3.40600130990E-01
  38   2  14    1 H    -4.31392530087E-01  3.26320333905E-01  1.59399869010E-01
  39   2  15    1 H    -6.86074699134E-02  9.07923990963E-02 -2.42287136008E-01
  40   2  16    1 H    -1.66920464895E-01  1.73679666095E-01 -2.57712863992E-01
  41   2  17    1 H     4.09207600904E-01  3.40600130990E-01 -3.33079535105E-01
  42   2  18    1 H     3.40600130990E-01 -3.33079535105E-01  4.09207600904E-01
  43   2  19    1 H     1.73679666095E-01 -2.57712863992E-01 -1.66920464895E-01
  44   2  20    1 H     1.59399869010E-01 -4.31392530087E-01  3.26320333905E-01
  45   2  21    1 H     3.26320333905E-01  1.59399869010E-01 -4.31392530087E-01
  46   2  22    1 H    -2.42287136008E-01 -6.86074699134E-02  9.07923990963E-02
  47   2  23    1 H     9.07923990963E-02 -2.42287136008E-01 -6.86074699134E-02
  48   2  24    1 H    -2.57712863992E-01 -1.66920464895E-01  1.73679666095E-01

  49   3   1    1 H    -5.81855222181E-02  3.31177345861E-01 -1.71436122804E-01
  50   3   2    1 H     2.61346866550E-03  1.13250600586E-01 -3.28563877196E-01
  51   3   3    1 H    -4.41814477782E-01  3.86749399414E-01  3.89362868079E-01
  52   3   4    1 H     4.97386531335E-01  1.68822654139E-01  1.10637131921E-01
  53   3   5    1 H    -1.71436122804E-01 -5.81855222181E-02  3.31177345861E-01
  54   3   6    1 H     3.31177345861E-01 -1.71436122804E-01 -5.81855222181E-02
  55   3   7    1 H     1.10637131921E-01  4.97386531335E-01  1.68822654139E-01
  56   3   8    1 H     1.13250600586E-01 -3.28563877196E-01  2.61346866550E-03
  57   3   9    1 H    -3.28563877196E-01  2.61346866550E-03  1.13250600586E-01
  58   3  10    1 H     3.86749399414E-01  3.89362868079E-01 -4.41814477782E-01
  59   3  11    1 H     3.89362868079E-01 -4.41814477782E-01  3.86749399414E-01
  60   3  12    1 H     1.68822654139E-01  1.10637131921E-01  4.97386531335E-01
  61   3  13    1 H    -1.68822654139E-01  4.41814477782E-01  3.28563877196E-01
  62   3  14    1 H    -3.86749399414E-01 -4.97386531334E-01  1.71436122804E-01
  63   3  15    1 H    -1.13250600586E-01  5.81855222181E-02 -1.10637131921E-01
  64   3  16    1 H    -3.31177345861E-01 -2.61346866550E-03 -3.89362868079E-01
  65   3  17    1 H     4.41814477782E-01  3.28563877196E-01 -1.68822654139E-01
  66   3  18    1 H     3.28563877196E-01 -1.68822654139E-01  4.41814477782E-01
  67   3  19    1 H    -2.61346866550E-03 -3.89362868079E-01 -3.31177345861E-01
  68   3  20    1 H     1.71436122804E-01 -3.86749399414E-01 -4.97386531334E-01
  69   3  21    1 H    -4.97386531334E-01  1.71436122804E-01 -3.86749399414E-01
  70   3  22    1 H    -1.10637131921E-01 -1.13250600586E-01  5.81855222181E-02
  71   3  23    1 H     5.81855222181E-02 -1.10637131921E-01 -1.13250600586E-01
  72   3  24    1 H    -3.89362868079E-01 -3.31177345861E-01 -2.61346866550E-03

  73   4   1    1 H    -5.36901582301E-02  2.46241501080E-01 -1.07367904727E-01
  74   4   2    1 H    -1.46390594193E-01  5.36777464967E-02 -3.92632095273E-01
  75   4   3    1 H    -4.46309841770E-01  4.46322253503E-01  2.99931659310E-01
  76   4   4    1 H    -3.53609405807E-01  2.53758498920E-01  2.00068340690E-01
  77   4   5    1 H    -1.07367904727E-01 -5.36901582301E-02  2.46241501080E-01
  78   4   6    1 H     2.46241501080E-01 -1.07367904727E-01 -5.36901582301E-02
  79   4   7    1 H     2.00068340690E-01 -3.53609405807E-01  2.53758498920E-01
  80   4   8    1 H     5.36777464967E-02 -3.92632095273E-01 -1.46390594193E-01
  81   4   9    1 H    -3.92632095273E-01 -1.46390594193E-01  5.36777464967E-02
  82   4  10    1 H     4.46322253503E-01  2.99931659310E-01 -4.46309841770E-01
  83   4  11    1 H     2.99931659310E-01 -4.46309841770E-01  4.46322253503E-01
  84   4  12    1 H     2.53758498920E-01  2.00068340690E-01 -3.53609405807E-01
  85   4  13    1 H    -2.53758498920E-01  4.46309841770E-01  3.92632095273E-01
  86   4  14    1 H    -4.46322253503E-01  3.53609405807E-01  1.07367904727E-01
  87   4  15    1 H    -5.36777464967E-02  5.36901582301E-02 -2.00068340690E-01
  88   4  16    1 H    -2.46241501080E-01  1.46390594193E-01 -2.99931659310E-01
  89   4  17    1 H     4.46309841770E-01  3.92632095273E-01 -2.53758498920E-01
  90   4  18    1 H     3.92632095273E-01 -2.53758498920E-01  4.46309841770E-01
  91   4  19    1 H     1.46390594193E-01 -2.99931659310E-01 -2.46241501080E-01
  92   4  20    1 H     1.07367904727E-01 -4.46322253503E-01  3.53609405807E-01
  93   4  21    1 H     3.53609405807E-01  1.07367904727E-01 -4.46322253503E-01
  94   4  22    1 H    -2.00068340690E-01 -5.36777464967E-02  5.36901582301E-02
  95   4  23    1 H     5.36901582301E-02 -2.00068340690E-01 -5.36777464967E-02
  96   4  24    1 H    -2.99931659310E-01 -2.46241501080E-01  1.46390594193E-01

  97   5   1    1 H    -9.86117808176E-02  1.93599080360E-01 -2.64522735514E-01
  98   5   2    1 H    -4.18781841256E-02  1.65910954696E-01 -2.35477264486E-01
  99   5   3    1 H    -4.01388219182E-01  3.34089045304E-01  2.92210861178E-01
 100   5   4    1 H    -4.58121815874E-01  3.06400919640E-01  2.07789138822E-01
 101   5   5    1 H    -2.64522735514E-01 -9.86117808176E-02  1.93599080360E-01
 102   5   6    1 H     1.93599080360E-01 -2.64522735514E-01 -9.86117808176E-02
 103   5   7    1 H     2.07789138822E-01 -4.58121815874E-01  3.06400919640E-01
 104   5   8    1 H     1.65910954696E-01 -2.35477264486E-01 -4.18781841256E-02
 105   5   9    1 H    -2.35477264486E-01 -4.18781841256E-02  1.65910954696E-01
 106   5  10    1 H     3.34089045304E-01  2.92210861178E-01 -4.01388219182E-01
 107   5  11    1 H     2.92210861178E-01 -4.01388219182E-01  3.34089045304E-01
 108   5  12    1 H     3.06400919640E-01  2.07789138822E-01 -4.58121815874E-01
 109   5  13    1 H    -3.06400919640E-01  4.01388219182E-01  2.35477264486E-01
 110   5  14    1 H    -3.34089045304E-01  4.58121815874E-01  2.64522735514E-01
 111   5  15    1 H    -1.65910954696E-01  9.86117808176E-02 -2.07789138822E-01
 112   5  16    1 H    -1.93599080360E-01  4.18781841256E-02 -2.92210861178E-01
 113   5  17    1 H     4.01388219182E-01  2.35477264486E-01 -3.06400919640E-01
 114   5  18    1 H     2.35477264486E-01 -3.06400919640E-01  4.01388219182E-01
 115   5  19    1 H     4.18781841256E-02 -2.92210861178E-01 -1.93599080360E-01
 116   5  20    1 H     2.64522735514E-01 -3.34089045304E-01  4.58121815874E-01
 117   5  21    1 H     4.58121815874E-01  2.64522735514E-01 -3.34089045304E-01
 118   5  22    1 H    -2.07789138822E-01 -1.65910954696E-01  9.86117808176E-02
 119   5  23    1 H     9.86117808176E-02 -2.07789138822E-01 -1.65910954696E-01
 120   5  24    1 H    -2.92210861178E-01 -1.93599080360E-01  4.18781841256E-02

 121   6   1    1 H    -1.49098369429E-02  4.11383527312E-01 -1.18601714226E-01
 122   6   2    1 H     2.99852415381E-02  1.03691877283E-01 -3.81398285774E-01
 123   6   3    1 H    -4.85090163057E-01  3.96308122717E-01  4.26293364255E-01
 124   6   4    1 H     4.70014758462E-01  8.86164726876E-02  7.37066357447E-02
 125   6   5    1 H    -1.18601714226E-01 -1.49098369429E-02  4.11383527312E-01
 126   6   6    1 H     4.11383527312E-01 -1.18601714226E-01 -1.49098369429E-02
 127   6   7    1 H     7.37066357447E-02  4.70014758462E-01  8.86164726876E-02
 128   6   8    1 H     1.03691877283E-01 -3.81398285774E-01  2.99852415381E-02
 129   6   9    1 H    -3.81398285774E-01  2.99852415381E-02  1.03691877283E-01
 130   6  10    1 H     3.96308122717E-01  4.26293364255E-01 -4.85090163057E-01
 131   6  11    1 H     4.26293364255E-01 -4.85090163057E-01  3.96308122717E-01
 132   6  12    1 H     8.86164726876E-02  7.37066357447E-02  4.70014758462E-01
 133   6  13    1 H    -8.86164726876E-02  4.85090163057E-01  3.81398285774E-01
 134   6  14    1 H    -3.96308122717E-01 -4.70014758462E-01  1.18601714226E-01
 135   6  15    1 H    -1.03691877283E-01  1.49098369429E-02 -7.37066357447E-02
 136   6  16    1 H    -4.11383527312E-01 -2.99852415381E-02 -4.26293364255E-01
 137   6  17    1 H     4.85090163057E-01  3.81398285774E-01 -8.86164726876E-02
 138   6  18    1 H     3.81398285774E-01 -8.86164726876E-02  4.85090163057E-01
 139   6  19    1 H    -2.99852415381E-02 -4.26293364255E-01 -4.11383527312E-01
 140   6  20    1 H     1.18601714226E-01 -3.96308122717E-01 -4.70014758462E-01
 141   6  21    1 H    -4.70014758462E-01  1.18601714226E-01 -3.96308122717E-01
 142   6  22    1 H    -7.37066357447E-02 -1.03691877283E-01  1.49098369429E-02
 143   6  23    1 H     1.49098369429E-02 -7.37066357447E-02 -1.03691877283E-01
 144   6  24    1 H    -4.26293364255E-01 -4.11383527312E-01 -2.99852415381E-02

 145   7   1    1 H    -5.89393401903E-02  2.73364142073E-01 -2.12084702375E-01
 146   7   2    1 H    -1.45511555523E-02  1.53145362185E-01 -2.87915297625E-01
 147   7   3    1 H    -4.41060659810E-01  3.46854637815E-01  3.32303482263E-01
 148   7   4    1 H    -4.85448844448E-01  2.26635857927E-01  1.67696517737E-01
 149   7   5    1 H    -2.12084702375E-01 -5.89393401903E-02  2.73364142073E-01
 150   7   6    1 H     2.73364142073E-01 -2.12084702375E-01 -5.89393401903E-02
 151   7   7    1 H     1.67696517737E-01 -4.85448844448E-01  2.26635857927E-01
 152   7   8    1 H     1.53145362185E-01 -2.87915297625E-01 -1.45511555523E-02
 153   7   9    1 H    -2.87915297625E-01 -1.45511555523E-02  1.53145362185E-01
 154   7  10    1 H     3.46854637815E-01  3.32303482263E-01 -4.41060659810E-01
 155   7  11    1 H     3.32303482263E-01 -4.41060659810E-01  3.46854637815E-01
 156   7  12    1 H     2.26635857927E-01  1.67696517737E-01 -4.85448844448E-01
 157   7  13    1 H    -2.26635857927E-01  4.41060659810E-01  2.87915297625E-01
 158   7  14    1 H    -3.46854637815E-01  4.85448844448E-01  2.12084702375E-01
 159   7  15    1 H    -1.53145362185E-01  5.89393401903E-02 -1.67696517737E-01
 160   7  16    1 H    -2.73364142073E-01  1.45511555523E-02 -3.32303482263E-01
 161   7  17    1 H     4.41060659810E-01  2.87915297625E-01 -2.26635857927E-01
 162   7  18    1 H     2.87915297625E-01 -2.26635857927E-01  4.41060659810E-01
 163   7  19    1 H     1.45511555523E-02 -3.32303482263E-01 -2.73364142073E-01
 164   7  20    1 H     2.12084702375E-01 -3.46854637815E-01  4.85448844448E-01
 165   7  21    1 H     4.85448844448E-01  2.12084702375E-01 -3.46854637815E-01
 166   7  22    1 H    -1.67696517737E-01 -1.53145362185E-01  5.89393401903E-02
 167   7  23    1 H     5.89393401903E-02 -1.67696517737E-01 -1.53145362185E-01
 168   7  24    1 H    -3.32303482263E-01 -2.73364142073E-01  1.45511555523E-02

 169   8   1    6 C    -9.88703026115E-02  1.74276200444E-01 -2.16069014546E-01
 170   8   2    6 C    -1.09654785010E-01  1.17198711935E-01 -2.83930985454E-01
 171   8   3    6 C    -4.01129697389E-01  3.82801288065E-01  2.73146503055E-01
 172   8   4    6 C    -3.90345214990E-01  3.25723799556E-01  2.26853496945E-01
 173   8   5    6 C    -2.16069014546E-01 -9.88703026115E-02  1.74276200444E-01
 174   8   6    6 C     1.74276200444E-01 -2.16069014546E-01 -9.88703026115E-02
 175   8   7    6 C     2.26853496945E-01 -3.90345214990E-01  3.25723799556E-01
 176   8   8    6 C     1.17198711935E-01 -2.83930985454E-01 -1.09654785010E-01
 177   8   9    6 C    -2.83930985454E-01 -1.09654785010E-01  1.17198711935E-01
 178   8  10    6 C     3.82801288065E-01  2.73146503055E-01 -4.01129697389E-01
 179   8  11    6 C     2.73146503055E-01 -4.01129697389E-01  3.82801288065E-01
 180   8  12    6 C     3.25723799556E-01  2.26853496945E-01 -3.90345214990E-01
 181   8  13    6 C    -3.25723799556E-01  4.01129697389E-01  2.83930985454E-01
 182   8  14    6 C    -3.82801288065E-01  3.90345214990E-01  2.16069014546E-01
 183   8  15    6 C    -1.17198711935E-01  9.88703026115E-02 -2.26853496945E-01
 184   8  16    6 C    -1.74276200444E-01  1.09654785010E-01 -2.73146503055E-01
 185   8  17    6 C     4.01129697389E-01  2.83930985454E-01 -3.25723799556E-01
 186   8  18    6 C     2.83930985454E-01 -3.25723799556E-01  4.01129697389E-01
 187   8  19    6 C     1.09654785010E-01 -2.73146503055E-01 -1.74276200444E-01
 188   8  20    6 C     2.16069014546E-01 -3.82801288065E-01  3.90345214990E-01
 189   8  21    6 C     3.90345214990E-01  2.16069014546E-01 -3.82801288065E-01
 190   8  22    6 C    -2.26853496945E-01 -1.17198711935E-01  9.88703026115E-02
 191   8  23    6 C     9.88703026115E-02 -2.26853496945E-01 -1.17198711935E-01
 192   8  24    6 C    -2.73146503055E-01 -1.74276200444E-01  1.09654785010E-01

 193   9   1    6 C    -8.94203575831E-02  2.05283133652E-01 -2.29995243530E-01
 194   9   2    6 C    -6.47216228171E-02  1.40574885947E-01 -2.70004756470E-01
 195   9   3    6 C    -4.10579642417E-01  3.59425114053E-01  2.94703491236E-01
 196   9   4    6 C    -4.35278377183E-01  2.94716866348E-01  2.05296508764E-01
 197   9   5    6 C    -2.29995243530E-01 -8.94203575831E-02  2.05283133652E-01
 198   9   6    6 C     2.05283133652E-01 -2.29995243530E-01 -8.94203575831E-02
 199   9   7    6 C     2.05296508764E-01 -4.35278377183E-01  2.94716866348E-01
 200   9   8    6 C     1.40574885947E-01 -2.70004756470E-01 -6.47216228171E-02
 201   9   9    6 C    -2.70004756470E-01 -6.47216228171E-02  1.40574885947E-01
 202   9  10    6 C     3.59425114053E-01  2.94703491236E-01 -4.10579642417E-01
 203   9  11    6 C     2.94703491236E-01 -4.10579642417E-01  3.59425114053E-01
 204   9  12    6 C     2.94716866348E-01  2.05296508764E-01 -4.35278377183E-01
 205   9  13    6 C    -2.94716866348E-01  4.10579642417E-01  2.70004756470E-01
 206   9  14    6 C    -3.59425114053E-01  4.35278377183E-01  2.29995243530E-01
 207   9  15    6 C    -1.40574885947E-01  8.94203575831E-02 -2.05296508764E-01
 208   9  16    6 C    -2.05283133652E-01  6.47216228171E-02 -2.94703491236E-01
 209   9  17    6 C     4.10579642417E-01  2.70004756470E-01 -2.94716866348E-01
 210   9  18    6 C     2.70004756470E-01 -2.94716866348E-01  4.10579642417E-01
 211   9  19    6 C     6.47216228171E-02 -2.94703491236E-01 -2.05283133652E-01
 212   9  20    6 C     2.29995243530E-01 -3.59425114053E-01  4.35278377183E-01
 213   9  21    6 C     4.35278377183E-01  2.29995243530E-01 -3.59425114053E-01
 214   9  22    6 C    -2.05296508764E-01 -1.40574885947E-01  8.94203575831E-02
 215   9  23    6 C     8.94203575831E-02 -2.05296508764E-01 -1.40574885947E-01
 216   9  24    6 C    -2.94703491236E-01 -2.05283133652E-01  6.47216228171E-02

 217  10   1    6 C    -6.71983231489E-02  2.50153081498E-01 -2.00435681728E-01
 218  10   2    6 C    -4.94112367745E-02  1.33237358579E-01 -2.99564318272E-01
 219  10   3    6 C    -4.32801676851E-01  3.66762641421E-01  3.17351404646E-01
 220  10   4    6 C    -4.50588763226E-01  2.49846918502E-01  1.82648595354E-01
 221  10   5    6 C    -2.00435681728E-01 -6.71983231489E-02  2.50153081498E-01
 222  10   6    6 C     2.50153081498E-01 -2.00435681728E-01 -6.71983231489E-02
 223  10   7    6 C     1.82648595354E-01 -4.50588763226E-01  2.49846918502E-01
 224  10   8    6 C     1.33237358579E-01 -2.99564318272E-01 -4.94112367745E-02
 225  10   9    6 C    -2.99564318272E-01 -4.94112367745E-02  1.33237358579E-01
 226  10  10    6 C     3.66762641421E-01  3.17351404646E-01 -4.32801676851E-01
 227  10  11    6 C     3.17351404646E-01 -4.32801676851E-01  3.66762641421E-01
 228  10  12    6 C     2.49846918502E-01  1.82648595354E-01 -4.50588763226E-01
 229  10  13    6 C    -2.49846918502E-01  4.32801676851E-01  2.99564318272E-01
 230  10  14    6 C    -3.66762641421E-01  4.50588763225E-01  2.00435681728E-01
 231  10  15    6 C    -1.33237358579E-01  6.71983231489E-02 -1.82648595354E-01
 232  10  16    6 C    -2.50153081498E-01  4.94112367745E-02 -3.17351404647E-01
 233  10  17    6 C     4.32801676851E-01  2.99564318272E-01 -2.49846918502E-01
 234  10  18    6 C     2.99564318272E-01 -2.49846918502E-01  4.32801676851E-01
 235  10  19    6 C     4.94112367745E-02 -3.17351404647E-01 -2.50153081498E-01
 236  10  20    6 C     2.00435681728E-01 -3.66762641421E-01  4.50588763225E-01
 237  10  21    6 C     4.50588763225E-01  2.00435681728E-01 -3.66762641421E-01
 238  10  22    6 C    -1.82648595354E-01 -1.33237358579E-01  6.71983231489E-02
 239  10  23    6 C     6.71983231489E-02 -1.82648595354E-01 -1.33237358579E-01
 240  10  24    6 C    -3.17351404647E-01 -2.50153081498E-01  4.94112367745E-02

 241  11   1    6 C    -6.30902038086E-02  2.35074600367E-01 -1.41848394147E-01
 242  11   2    6 C    -1.23077005486E-01  7.87581903382E-02 -3.58151605853E-01
 243  11   3    6 C    -4.36909796191E-01  4.21241809662E-01  2.98164804176E-01
 244  11   4    6 C    -3.76922994514E-01  2.64925399633E-01  2.01835195824E-01
 245  11   5    6 C    -1.41848394147E-01 -6.30902038086E-02  2.35074600367E-01
 246  11   6    6 C     2.35074600367E-01 -1.41848394147E-01 -6.30902038086E-02
 247  11   7    6 C     2.01835195824E-01 -3.76922994514E-01  2.64925399633E-01
 248  11   8    6 C     7.87581903382E-02 -3.58151605853E-01 -1.23077005486E-01
 249  11   9    6 C    -3.58151605853E-01 -1.23077005486E-01  7.87581903382E-02
 250  11  10    6 C     4.21241809662E-01  2.98164804176E-01 -4.36909796191E-01
 251  11  11    6 C     2.98164804176E-01 -4.36909796191E-01  4.21241809662E-01
 252  11  12    6 C     2.64925399633E-01  2.01835195824E-01 -3.76922994514E-01
 253  11  13    6 C    -2.64925399633E-01  4.36909796191E-01  3.58151605853E-01
 254  11  14    6 C    -4.21241809662E-01  3.76922994514E-01  1.41848394147E-01
 255  11  15    6 C    -7.87581903382E-02  6.30902038086E-02 -2.01835195824E-01
 256  11  16    6 C    -2.35074600367E-01  1.23077005486E-01 -2.98164804176E-01
 257  11  17    6 C     4.36909796191E-01  3.58151605853E-01 -2.64925399633E-01
 258  11  18    6 C     3.58151605853E-01 -2.64925399633E-01  4.36909796191E-01
 259  11  19    6 C     1.23077005486E-01 -2.98164804176E-01 -2.35074600367E-01
 260  11  20    6 C     1.41848394147E-01 -4.21241809662E-01  3.76922994514E-01
 261  11  21    6 C     3.76922994514E-01  1.41848394147E-01 -4.21241809662E-01
 262  11  22    6 C    -2.01835195824E-01 -7.87581903382E-02  6.30902038086E-02
 263  11  23    6 C     6.30902038086E-02 -2.01835195824E-01 -7.87581903382E-02
 264  11  24    6 C    -2.98164804176E-01 -2.35074600367E-01  1.23077005486E-01

 265  12   1    6 C    -5.35374635906E-02  2.66175290194E-01 -1.55538024410E-01
 266  12   2    6 C    -7.82866853962E-02  1.02000560819E-01 -3.44461975590E-01
 267  12   3    6 C    -4.46462536409E-01  3.97999439181E-01  3.19712753785E-01
 268  12   4    6 C    -4.21713314604E-01  2.33824709806E-01  1.80287246215E-01
 269  12   5    6 C    -1.55538024410E-01 -5.35374635906E-02  2.66175290194E-01
 270  12   6    6 C     2.66175290194E-01 -1.55538024410E-01 -5.35374635906E-02
 271  12   7    6 C     1.80287246215E-01 -4.21713314604E-01  2.33824709806E-01
 272  12   8    6 C     1.02000560819E-01 -3.44461975590E-01 -7.82866853962E-02
 273  12   9    6 C    -3.44461975590E-01 -7.82866853962E-02  1.02000560819E-01
 274  12  10    6 C     3.97999439181E-01  3.19712753785E-01 -4.46462536409E-01
 275  12  11    6 C     3.19712753785E-01 -4.46462536409E-01  3.97999439181E-01
 276  12  12    6 C     2.33824709806E-01  1.80287246215E-01 -4.21713314604E-01
 277  12  13    6 C    -2.33824709806E-01  4.46462536409E-01  3.44461975590E-01
 278  12  14    6 C    -3.97999439181E-01  4.21713314604E-01  1.55538024410E-01
 279  12  15    6 C    -1.02000560819E-01  5.35374635906E-02 -1.80287246215E-01
 280  12  16    6 C    -2.66175290194E-01  7.82866853962E-02 -3.19712753785E-01
 281  12  17    6 C     4.46462536409E-01  3.44461975590E-01 -2.33824709806E-01
 282  12  18    6 C     3.44461975590E-01 -2.33824709806E-01  4.46462536409E-01
 283  12  19    6 C     7.82866853962E-02 -3.19712753785E-01 -2.66175290194E-01
 284  12  20    6 C     1.55538024410E-01 -3.97999439181E-01  4.21713314604E-01
 285  12  21    6 C     4.21713314604E-01  1.55538024410E-01 -3.97999439181E-01
 286  12  22    6 C    -1.80287246215E-01 -1.02000560819E-01  5.35374635906E-02
 287  12  23    6 C     5.35374635906E-02 -1.80287246215E-01 -1.02000560819E-01
 288  12  24    6 C    -3.19712753785E-01 -2.66175290194E-01  7.82866853962E-02

 289  13   1    6 C     2.26728800966E-02  3.75377807363E-01 -4.95649376051E-02
 290  13   2    6 C    -7.50572550322E-02  7.22378177017E-02 -4.50435062395E-01
 291  13   3    6 C     4.77327119903E-01  4.27762182298E-01  3.52704927266E-01
 292  13   4    6 C    -4.24942744968E-01  1.24622192637E-01  1.47295072734E-01
 293  13   5    6 C    -4.95649376051E-02  2.26728800966E-02  3.75377807363E-01
 294  13   6    6 C     3.75377807363E-01 -4.95649376051E-02  2.26728800966E-02
 295  13   7    6 C     1.47295072734E-01 -4.24942744968E-01  1.24622192637E-01
 296  13   8    6 C     7.22378177017E-02 -4.50435062395E-01 -7.50572550322E-02
 297  13   9    6 C    -4.50435062395E-01 -7.50572550322E-02  7.22378177017E-02
 298  13  10    6 C     4.27762182298E-01  3.52704927266E-01  4.77327119903E-01
 299  13  11    6 C     3.52704927266E-01  4.77327119903E-01  4.27762182298E-01
 300  13  12    6 C     1.24622192637E-01  1.47295072734E-01 -4.24942744968E-01
 301  13  13    6 C    -1.24622192637E-01 -4.77327119903E-01  4.50435062395E-01
 302  13  14    6 C    -4.27762182298E-01  4.24942744968E-01  4.95649376051E-02
 303  13  15    6 C    -7.22378177017E-02 -2.26728800966E-02 -1.47295072734E-01
 304  13  16    6 C    -3.75377807363E-01  7.50572550322E-02 -3.52704927266E-01
 305  13  17    6 C    -4.77327119903E-01  4.50435062395E-01 -1.24622192637E-01
 306  13  18    6 C     4.50435062395E-01 -1.24622192637E-01 -4.77327119903E-01
 307  13  19    6 C     7.50572550322E-02 -3.52704927266E-01 -3.75377807363E-01
 308  13  20    6 C     4.95649376051E-02 -4.27762182298E-01  4.24942744968E-01
 309  13  21    6 C     4.24942744968E-01  4.95649376051E-02 -4.27762182298E-01
 310  13  22    6 C    -1.47295072734E-01 -7.22378177017E-02 -2.26728800966E-02
 311  13  23    6 C    -2.26728800966E-02 -1.47295072734E-01 -7.22378177017E-02
 312  13  24    6 C    -3.52704927266E-01 -3.75377807363E-01  7.50572550322E-02

 313  14   1    6 C    -8.49086549566E-02  1.90157726946E-01 -1.71357921133E-01
 314  14   2    6 C    -1.38484351921E-01  8.64492661767E-02 -3.28642078867E-01
 315  14   3    6 C    -4.15091345043E-01  4.13550733823E-01  2.75066381903E-01
 316  14   4    6 C    -3.61515648079E-01  3.09842273054E-01  2.24933618097E-01
 317  14   5    6 C    -1.71357921133E-01 -8.49086549566E-02  1.90157726946E-01
 318  14   6    6 C     1.90157726946E-01 -1.71357921133E-01 -8.49086549566E-02
 319  14   7    6 C     2.24933618097E-01 -3.61515648079E-01  3.09842273054E-01
 320  14   8    6 C     8.64492661767E-02 -3.28642078867E-01 -1.38484351921E-01
 321  14   9    6 C    -3.28642078867E-01 -1.38484351921E-01  8.64492661767E-02
 322  14  10    6 C     4.13550733823E-01  2.75066381903E-01 -4.15091345043E-01
 323  14  11    6 C     2.75066381903E-01 -4.15091345043E-01  4.13550733823E-01
 324  14  12    6 C     3.09842273054E-01  2.24933618097E-01 -3.61515648079E-01
 325  14  13    6 C    -3.09842273054E-01  4.15091345043E-01  3.28642078867E-01
 326  14  14    6 C    -4.13550733823E-01  3.61515648079E-01  1.71357921133E-01
 327  14  15    6 C    -8.64492661767E-02  8.49086549566E-02 -2.24933618097E-01
 328  14  16    6 C    -1.90157726946E-01  1.38484351921E-01 -2.75066381903E-01
 329  14  17    6 C     4.15091345043E-01  3.28642078867E-01 -3.09842273054E-01
 330  14  18    6 C     3.28642078867E-01 -3.09842273054E-01  4.15091345043E-01
 331  14  19    6 C     1.38484351921E-01 -2.75066381903E-01 -1.90157726946E-01
 332  14  20    6 C     1.71357921133E-01 -4.13550733823E-01  3.61515648079E-01
 333  14  21    6 C     3.61515648079E-01  1.71357921133E-01 -4.13550733823E-01
 334  14  22    6 C    -2.24933618097E-01 -8.64492661767E-02  8.49086549566E-02
 335  14  23    6 C     8.49086549566E-02 -2.24933618097E-01 -8.64492661767E-02
 336  14  24    6 C    -2.75066381903E-01 -1.90157726946E-01  1.38484351921E-01

 337  15   1    1 H     4.51677679665E-02  3.87917853727E-01 -1.50477693545E-02
 338  15   2    1 H    -9.70343769183E-02  6.02155373210E-02 -4.84952230645E-01
 339  15   3    1 H     4.54832232034E-01  4.39784462679E-01  3.42750085761E-01
 340  15   4    1 H    -4.02965623082E-01  1.12082146273E-01  1.57249914239E-01
 341  15   5    1 H    -1.50477693545E-02  4.51677679665E-02  3.87917853727E-01
 342  15   6    1 H     3.87917853727E-01 -1.50477693545E-02  4.51677679665E-02
 343  15   7    1 H     1.57249914239E-01 -4.02965623082E-01  1.12082146273E-01
 344  15   8    1 H     6.02155373210E-02 -4.84952230645E-01 -9.70343769183E-02
 345  15   9    1 H    -4.84952230645E-01 -9.70343769183E-02  6.02155373210E-02
 346  15  10    1 H     4.39784462679E-01  3.42750085761E-01  4.54832232034E-01
 347  15  11    1 H     3.42750085761E-01  4.54832232034E-01  4.39784462679E-01
 348  15  12    1 H     1.12082146273E-01  1.57249914239E-01 -4.02965623082E-01
 349  15  13    1 H    -1.12082146273E-01 -4.54832232034E-01  4.84952230646E-01
 350  15  14    1 H    -4.39784462679E-01  4.02965623082E-01  1.50477693545E-02
 351  15  15    1 H    -6.02155373210E-02 -4.51677679665E-02 -1.57249914239E-01
 352  15  16    1 H    -3.87917853727E-01  9.70343769183E-02 -3.42750085761E-01
 353  15  17    1 H    -4.54832232034E-01  4.84952230646E-01 -1.12082146273E-01
 354  15  18    1 H     4.84952230646E-01 -1.12082146273E-01 -4.54832232034E-01
 355  15  19    1 H     9.70343769183E-02 -3.42750085761E-01 -3.87917853727E-01
 356  15  20    1 H     1.50477693545E-02 -4.39784462679E-01  4.02965623082E-01
 357  15  21    1 H     4.02965623082E-01  1.50477693545E-02 -4.39784462679E-01
 358  15  22    1 H    -1.57249914239E-01 -6.02155373210E-02 -4.51677679665E-02
 359  15  23    1 H    -4.51677679665E-02 -1.57249914239E-01 -6.02155373210E-02
 360  15  24    1 H    -3.42750085761E-01 -3.87917853727E-01  9.70343769183E-02

 361  16   1    6 C    -3.46116206569E-02  3.43615444075E-01 -1.37323284679E-01
 362  16   2    6 C    -1.90612712465E-02  1.02711664022E-01 -3.62676715321E-01
 363  16   3    6 C    -4.65388379343E-01  3.97288335978E-01  3.78227064732E-01
 364  16   4    6 C    -4.80938728753E-01  1.56384555925E-01  1.21772935268E-01
 365  16   5    6 C    -1.37323284679E-01 -3.46116206569E-02  3.43615444075E-01
 366  16   6    6 C     3.43615444075E-01 -1.37323284679E-01 -3.46116206569E-02
 367  16   7    6 C     1.21772935268E-01 -4.80938728753E-01  1.56384555925E-01
 368  16   8    6 C     1.02711664022E-01 -3.62676715321E-01 -1.90612712465E-02
 369  16   9    6 C    -3.62676715321E-01 -1.90612712465E-02  1.02711664022E-01
 370  16  10    6 C     3.97288335978E-01  3.78227064732E-01 -4.65388379343E-01
 371  16  11    6 C     3.78227064732E-01 -4.65388379343E-01  3.97288335978E-01
 372  16  12    6 C     1.56384555925E-01  1.21772935268E-01 -4.80938728753E-01
 373  16  13    6 C    -1.56384555925E-01  4.65388379343E-01  3.62676715321E-01
 374  16  14    6 C    -3.97288335978E-01  4.80938728753E-01  1.37323284679E-01
 375  16  15    6 C    -1.02711664022E-01  3.46116206569E-02 -1.21772935268E-01
 376  16  16    6 C    -3.43615444075E-01  1.90612712465E-02 -3.78227064732E-01
 377  16  17    6 C     4.65388379343E-01  3.62676715321E-01 -1.56384555925E-01
 378  16  18    6 C     3.62676715321E-01 -1.56384555925E-01  4.65388379343E-01
 379  16  19    6 C     1.90612712465E-02 -3.78227064732E-01 -3.43615444075E-01
 380  16  20    6 C     1.37323284679E-01 -3.97288335978E-01  4.80938728753E-01
 381  16  21    6 C     4.80938728753E-01  1.37323284679E-01 -3.97288335978E-01
 382  16  22    6 C    -1.21772935268E-01 -1.02711664022E-01  3.46116206569E-02
 383  16  23    6 C     3.46116206569E-02 -1.21772935268E-01 -1.02711664022E-01
 384  16  24    6 C    -3.78227064732E-01 -3.43615444075E-01  1.90612712465E-02

 385  17   1    6 C     1.81094182625E-02  4.05409631611E-01 -6.29895389847E-02
 386  17   2    6 C    -3.16008294047E-02  8.10989572472E-02 -4.37010461015E-01
 387  17   3    6 C     4.81890581737E-01  4.18901042753E-01  3.87300213348E-01
 388  17   4    6 C    -4.68399170595E-01  9.45903683894E-02  1.12699786652E-01
 389  17   5    6 C    -6.29895389847E-02  1.81094182625E-02  4.05409631611E-01
 390  17   6    6 C     4.05409631611E-01 -6.29895389847E-02  1.81094182625E-02
 391  17   7    6 C     1.12699786652E-01 -4.68399170595E-01  9.45903683894E-02
 392  17   8    6 C     8.10989572472E-02 -4.37010461015E-01 -3.16008294047E-02
 393  17   9    6 C    -4.37010461015E-01 -3.16008294047E-02  8.10989572472E-02
 394  17  10    6 C     4.18901042753E-01  3.87300213348E-01  4.81890581737E-01
 395  17  11    6 C     3.87300213348E-01  4.81890581737E-01  4.18901042753E-01
 396  17  12    6 C     9.45903683894E-02  1.12699786652E-01 -4.68399170595E-01
 397  17  13    6 C    -9.45903683894E-02 -4.81890581737E-01  4.37010461015E-01
 398  17  14    6 C    -4.18901042753E-01  4.68399170595E-01  6.29895389847E-02
 399  17  15    6 C    -8.10989572472E-02 -1.81094182625E-02 -1.12699786652E-01
 400  17  16    6 C    -4.05409631611E-01  3.16008294047E-02 -3.87300213348E-01
 401  17  17    6 C    -4.81890581737E-01  4.37010461015E-01 -9.45903683894E-02
 402  17  18    6 C     4.37010461015E-01 -9.45903683894E-02 -4.81890581737E-01
 403  17  19    6 C     3.16008294047E-02 -3.87300213348E-01 -4.05409631611E-01
 404  17  20    6 C     6.29895389847E-02 -4.18901042753E-01  4.68399170595E-01
 405  17  21    6 C     4.68399170595E-01  6.29895389847E-02 -4.18901042753E-01
 406  17  22    6 C    -1.12699786652E-01 -8.10989572472E-02 -1.81094182625E-02
 407  17  23    6 C    -1.81094182625E-02 -1.12699786652E-01 -8.10989572472E-02
 408  17  24    6 C    -3.87300213348E-01 -4.05409631611E-01  3.16008294047E-02

 409  18   1    1 H     5.67885573690E-03  3.08182293917E-01 -6.85625361180E-02
 410  18   2    1 H    -1.23255169965E-01  7.42413918549E-02 -4.31437463882E-01
 411  18   3    1 H     4.94321144263E-01  4.25758608145E-01  3.02503438180E-01
 412  18   4    1 H    -3.76744830035E-01  1.91817706083E-01  1.97496561820E-01
 413  18   5    1 H    -6.85625361180E-02  5.67885573690E-03  3.08182293917E-01
 414  18   6    1 H     3.08182293917E-01 -6.85625361180E-02  5.67885573690E-03
 415  18   7    1 H     1.97496561820E-01 -3.76744830035E-01  1.91817706083E-01
 416  18   8    1 H     7.42413918549E-02 -4.31437463882E-01 -1.23255169965E-01
 417  18   9    1 H    -4.31437463882E-01 -1.23255169965E-01  7.42413918549E-02
 418  18  10    1 H     4.25758608145E-01  3.02503438180E-01  4.94321144263E-01
 419  18  11    1 H     3.02503438180E-01  4.94321144263E-01  4.25758608145E-01
 420  18  12    1 H     1.91817706083E-01  1.97496561820E-01 -3.76744830035E-01
 421  18  13    1 H    -1.91817706083E-01 -4.94321144263E-01  4.31437463882E-01
 422  18  14    1 H    -4.25758608145E-01  3.76744830035E-01  6.85625361180E-02
 423  18  15    1 H    -7.42413918549E-02 -5.67885573690E-03 -1.97496561820E-01
 424  18  16    1 H    -3.08182293917E-01  1.23255169965E-01 -3.02503438180E-01
 425  18  17    1 H    -4.94321144263E-01  4.31437463882E-01 -1.91817706083E-01
 426  18  18    1 H     4.31437463882E-01 -1.91817706083E-01 -4.94321144263E-01
 427  18  19    1 H     1.23255169965E-01 -3.02503438180E-01 -3.08182293917E-01
 428  18  20    1 H     6.85625361180E-02 -4.25758608145E-01  3.76744830035E-01
 429  18  21    1 H     3.76744830035E-01  6.85625361180E-02 -4.25758608145E-01
 430  18  22    1 H    -1.97496561820E-01 -7.42413918549E-02 -5.67885573690E-03
 431  18  23    1 H    -5.67885573690E-03 -1.97496561820E-01 -7.42413918549E-02
 432  18  24    1 H    -3.02503438180E-01 -3.08182293917E-01  1.23255169965E-01

 433  19   1    6 C     1.57315656000E-05  3.30592041256E-01 -7.94598069410E-02
 434  19   2    6 C    -8.99481518026E-02  7.94755385066E-02 -4.20540193059E-01
 435  19   3    6 C     4.99984268434E-01  4.20524461493E-01  3.30576309691E-01
 436  19   4    6 C    -4.10051848197E-01  1.69407958744E-01  1.69423690309E-01
 437  19   5    6 C    -7.94598069410E-02  1.57315656000E-05  3.30592041256E-01
 438  19   6    6 C     3.30592041256E-01 -7.94598069410E-02  1.57315656000E-05
 439  19   7    6 C     1.69423690309E-01 -4.10051848197E-01  1.69407958744E-01
 440  19   8    6 C     7.94755385066E-02 -4.20540193059E-01 -8.99481518026E-02
 441  19   9    6 C    -4.20540193059E-01 -8.99481518026E-02  7.94755385066E-02
 442  19  10    6 C     4.20524461493E-01  3.30576309691E-01  4.99984268434E-01
 443  19  11    6 C     3.30576309691E-01  4.99984268434E-01  4.20524461493E-01
 444  19  12    6 C     1.69407958744E-01  1.69423690309E-01 -4.10051848197E-01
 445  19  13    6 C    -1.69407958744E-01 -4.99984268434E-01  4.20540193059E-01
 446  19  14    6 C    -4.20524461493E-01  4.10051848197E-01  7.94598069410E-02
 447  19  15    6 C    -7.94755385066E-02 -1.57315656000E-05 -1.69423690309E-01
 448  19  16    6 C    -3.30592041256E-01  8.99481518026E-02 -3.30576309691E-01
 449  19  17    6 C    -4.99984268434E-01  4.20540193059E-01 -1.69407958744E-01
 450  19  18    6 C     4.20540193059E-01 -1.69407958744E-01 -4.99984268434E-01
 451  19  19    6 C     8.99481518026E-02 -3.30576309691E-01 -3.30592041256E-01
 452  19  20    6 C     7.94598069410E-02 -4.20524461493E-01  4.10051848197E-01
 453  19  21    6 C     4.10051848197E-01  7.94598069410E-02 -4.20524461493E-01
 454  19  22    6 C    -1.69423690309E-01 -7.94755385066E-02 -1.57315656000E-05
 455  19  23    6 C    -1.57315656000E-05 -1.69423690309E-01 -7.94755385066E-02
 456  19  24    6 C    -3.30576309691E-01 -3.30592041256E-01  8.99481518026E-02

 457  20   1    6 C    -2.93661644490E-02  3.13689151552E-01 -1.23972109505E-01
 458  20   2    6 C    -6.23387389426E-02  9.46059450562E-02 -3.76027890495E-01
 459  20   3    6 C    -4.70633835551E-01  4.05394054944E-01  3.43055316001E-01
 460  20   4    6 C    -4.37661261057E-01  1.86310848448E-01  1.56944683999E-01
 461  20   5    6 C    -1.23972109505E-01 -2.93661644490E-02  3.13689151552E-01
 462  20   6    6 C     3.13689151552E-01 -1.23972109505E-01 -2.93661644490E-02
 463  20   7    6 C     1.56944683999E-01 -4.37661261057E-01  1.86310848448E-01
 464  20   8    6 C     9.46059450562E-02 -3.76027890495E-01 -6.23387389426E-02
 465  20   9    6 C    -3.76027890495E-01 -6.23387389426E-02  9.46059450562E-02
 466  20  10    6 C     4.05394054944E-01  3.43055316001E-01 -4.70633835551E-01
 467  20  11    6 C     3.43055316001E-01 -4.70633835551E-01  4.05394054944E-01
 468  20  12    6 C     1.86310848448E-01  1.56944683999E-01 -4.37661261057E-01
 469  20  13    6 C    -1.86310848448E-01  4.70633835551E-01  3.76027890495E-01
 470  20  14    6 C    -4.05394054944E-01  4.37661261057E-01  1.23972109505E-01
 471  20  15    6 C    -9.46059450562E-02  2.93661644490E-02 -1.56944683999E-01
 472  20  16    6 C    -3.13689151552E-01  6.23387389426E-02 -3.43055316001E-01
 473  20  17    6 C     4.70633835551E-01  3.76027890495E-01 -1.86310848448E-01
 474  20  18    6 C     3.76027890495E-01 -1.86310848448E-01  4.70633835551E-01
 475  20  19    6 C     6.23387389426E-02 -3.43055316001E-01 -3.13689151552E-01
 476  20  20    6 C     1.23972109505E-01 -4.05394054944E-01  4.37661261057E-01
 477  20  21    6 C     4.37661261057E-01  1.23972109505E-01 -4.05394054944E-01
 478  20  22    6 C    -1.56944683999E-01 -9.46059450562E-02  2.93661644490E-02
 479  20  23    6 C     2.93661644490E-02 -1.56944683999E-01 -9.46059450562E-02
 480  20  24    6 C    -3.43055316001E-01 -3.13689151552E-01  6.23387389426E-02

 481  21   1    6 C    -1.08445412737E-02  3.88533097057E-01 -1.07567830151E-01
 482  21   2    6 C    -3.89907279250E-03  9.67232888768E-02 -3.92432169850E-01
 483  21   3    6 C    -4.89155458726E-01  4.03276711123E-01  3.99377638331E-01
 484  21   4    6 C    -4.96100927207E-01  1.11466902943E-01  1.00622361669E-01
 485  21   5    6 C    -1.07567830151E-01 -1.08445412737E-02  3.88533097057E-01
 486  21   6    6 C     3.88533097057E-01 -1.07567830151E-01 -1.08445412737E-02
 487  21   7    6 C     1.00622361669E-01 -4.96100927207E-01  1.11466902943E-01
 488  21   8    6 C     9.67232888768E-02 -3.92432169850E-01 -3.89907279250E-03
 489  21   9    6 C    -3.92432169850E-01 -3.89907279250E-03  9.67232888768E-02
 490  21  10    6 C     4.03276711123E-01  3.99377638331E-01 -4.89155458726E-01
 491  21  11    6 C     3.99377638331E-01 -4.89155458726E-01  4.03276711123E-01
 492  21  12    6 C     1.11466902943E-01  1.00622361669E-01 -4.96100927207E-01
 493  21  13    6 C    -1.11466902943E-01  4.89155458726E-01  3.92432169850E-01
 494  21  14    6 C    -4.03276711123E-01  4.96100927207E-01  1.07567830151E-01
 495  21  15    6 C    -9.67232888768E-02  1.08445412737E-02 -1.00622361669E-01
 496  21  16    6 C    -3.88533097057E-01  3.89907279250E-03 -3.99377638331E-01
 497  21  17    6 C     4.89155458726E-01  3.92432169850E-01 -1.11466902943E-01
 498  21  18    6 C     3.92432169850E-01 -1.11466902943E-01  4.89155458726E-01
 499  21  19    6 C     3.89907279250E-03 -3.99377638331E-01 -3.88533097057E-01
 500  21  20    6 C     1.07567830151E-01 -4.03276711123E-01  4.96100927207E-01
 501  21  21    6 C     4.96100927207E-01  1.07567830151E-01 -4.03276711123E-01
 502  21  22    6 C    -1.00622361669E-01 -9.67232888768E-02  1.08445412737E-02
 503  21  23    6 C     1.08445412737E-02 -1.00622361669E-01 -9.67232888768E-02
 504  21  24    6 C    -3.99377638331E-01 -3.88533097057E-01  3.89907279250E-03

 505  22   1    5 B     4.45941112086E-02  4.55037007858E-01 -2.99708690168E-02
 506  22   2    5 B    -1.49921231250E-02  7.45649802254E-02 -4.70029130983E-01
 507  22   3    5 B     4.55405888791E-01  4.25435019775E-01  4.10442896650E-01
 508  22   4    5 B    -4.85007876875E-01  4.49629921418E-02  8.95571033504E-02
 509  22   5    5 B    -2.99708690168E-02  4.45941112086E-02  4.55037007858E-01
 510  22   6    5 B     4.55037007858E-01 -2.99708690168E-02  4.45941112086E-02
 511  22   7    5 B     8.95571033504E-02 -4.85007876875E-01  4.49629921418E-02
 512  22   8    5 B     7.45649802254E-02 -4.70029130983E-01 -1.49921231250E-02
 513  22   9    5 B    -4.70029130983E-01 -1.49921231250E-02  7.45649802254E-02
 514  22  10    5 B     4.25435019775E-01  4.10442896650E-01  4.55405888791E-01
 515  22  11    5 B     4.10442896650E-01  4.55405888791E-01  4.25435019775E-01
 516  22  12    5 B     4.49629921418E-02  8.95571033504E-02 -4.85007876875E-01
 517  22  13    5 B    -4.49629921418E-02 -4.55405888791E-01  4.70029130983E-01
 518  22  14    5 B    -4.25435019775E-01  4.85007876875E-01  2.99708690168E-02
 519  22  15    5 B    -7.45649802254E-02 -4.45941112086E-02 -8.95571033504E-02
 520  22  16    5 B    -4.55037007858E-01  1.49921231250E-02 -4.10442896650E-01
 521  22  17    5 B    -4.55405888791E-01  4.70029130983E-01 -4.49629921418E-02
 522  22  18    5 B     4.70029130983E-01 -4.49629921418E-02 -4.55405888791E-01
 523  22  19    5 B     1.49921231250E-02 -4.10442896650E-01 -4.55037007858E-01
 524  22  20    5 B     2.99708690168E-02 -4.25435019775E-01  4.85007876875E-01
 525  22  21    5 B     4.85007876875E-01  2.99708690168E-02 -4.25435019775E-01
 526  22  22    5 B    -8.95571033504E-02 -7.45649802254E-02 -4.45941112086E-02
 527  22  23    5 B    -4.45941112086E-02 -8.95571033504E-02 -7.45649802254E-02
 528  22  24    5 B    -4.10442896650E-01 -4.55037007858E-01  1.49921231250E-02

 529  23   1    6 C     3.75000000000E-01  2.50000000000E-01 -3.75000000000E-01
 530  23   2    6 C     1.25000000000E-01 -2.50000000000E-01 -1.25000000000E-01
 531  23   3    6 C    -3.75000000000E-01  3.75000000000E-01  2.50000000000E-01
 532  23   4    6 C     2.50000000000E-01 -3.75000000000E-01  3.75000000000E-01
 533  23   5    6 C    -2.50000000000E-01 -1.25000000000E-01  1.25000000000E-01
 534  23   6    6 C    -1.25000000000E-01  1.25000000000E-01 -2.50000000000E-01

 NUMBER OF SYMMETRY OPERATORS         :   24
 *******************************************************************************
 * GEOMETRY EDITING - INPUT COORDINATES ARE GIVEN IN ANGSTROM         
 *******************************************************************************

 GEOMETRY NOW FULLY CONSISTENT WITH THE GROUP
 INFORMATION **** NEW DEFAULT **** FINALRUN 4 FOR GEOMETRY OPTIMIZATIONS
 INFORMATION **** NEW DEFAULT **** OPTGEOM OPTIMIZES BOTH ATOMIC COORDINATES AND CELL PARAMETERS
 INFORMATION **** NEW DEFAULT **** TOL. ON ATOMIC DISP TO REDEFINE REF. GEOMETRY: 0.8 Angs
 INFORMATION **** NEW DEFAULT **** N POINTS TO REDEFINE REF. GEOMETRY: N OF OPT DEGS OF FREEDOM
 INFORMATION **** NEW DEFAULT **** TOL. ON ENERGY TO REDEFINE REF. GEOMETRY: 10**-3*(5*N. ATOMS)
 INFORMATION **** FULLOPTG **** FULL OPTIMIZATION (ATOMS AND CELL PARAMETERS)
 INFORMATION **** TOLDEG **** MODIFY CONVERGENCE CRITERIUM FOR RMS GRADIENT  3.000000E-04
 INFORMATION **** TOLDEX ****  CONVERGENCE CRITERIUM FOR RMS DISPLACEMENT MODIFIED  1.200000E-04
 INFORMATION **** MAXCYCLE ****   MAXIMUM NUMBER OF OPTIMIZATION CYCLES        1600

 IMPORTANT INFORMATION:
 THE COORDINATE SYSTEM ADOPTED IN THE OPTIMIZATION IS NOT IN
 GENERAL HOMOGENEOUS UNITS. FOR THIS REASON THE GRADIENT AND 
 HESSIAN MATRIX IN TERMS OF THIS SYSTEM ARE GIVEN WITHOUT
 UNITS. FOR MORE DETAILS SEE THE MANUAL.

 *******************************************************************************
 COMBINED CELL/ATOM OPTIMIZATION CONTROL

 INITIAL TRUST RADIUS         0.50000 MAXIMUM TRUST RADIUS               4.00000
 MAXIMUM GRADIENT COMPONENT   0.00005 MAXIMUM DISPLACEMENT COMPONENT     0.00018
 R.M.S. OF GRADIENT COMPONENT 0.00003 R.M.S. OF DISPLACEMENT COMPONENTS  0.00012
 THRESHOLD ON ENERGY CHANGE 0.100E-06 EXTRAPOLATING POLYNOMIAL ORDER           2
 MAXIMUM ALLOWED NUMBER OF STEPS 1600 SORTING OF ENERGY POINTS:               NO
 ANALYTICAL  GRADIENT                 HESSIAN UPDATING                      BFGS
 STEP SIZE NUMERICAL GRADIENT 0.00100
 INITIAL HESSIAN MATRIX: SCHLEGEL MODEL 2
 *******************************************************************************


 GCALCO - MAX INDICES DIRECT LATTICE VECTOR    14    14    14
 NO.OF VECTORS CREATED 6999 STARS  122 RMAX   769.67005 BOHR

 GEOMETRY FOR WAVE FUNCTION - DIMENSIONALITY OF THE SYSTEM    3
 (NON PERIODIC DIRECTION: LATTICE PARAMETER FORMALLY SET TO 500)
 *******************************************************************************
 LATTICE PARAMETERS (ANGSTROMS AND DEGREES) - BOHR = 0.5291772083 ANGSTROM
 PRIMITIVE CELL - CENTRING CODE 6/0 VOLUME= 40234.828181 - DENSITY  0.180 g/cm^3
         A              B              C           ALPHA      BETA       GAMMA 
    37.38878456    37.38878456    37.38878456   109.471221 109.471221 109.471221
 *******************************************************************************
 ATOMS IN THE ASYMMETRIC UNIT   23 - ATOMS IN THE UNIT CELL:  534
     ATOM                 X/A                 Y/B                 Z/C    
 *******************************************************************************
      1 T   8 O     6.440157162840E-02  4.703454734401E-01  1.484524468070E-02
      2 F   8 O    -4.449977124060E-02  4.955632694770E-02  4.851547553193E-01
      3 F   8 O     4.355984283716E-01  4.504436730523E-01  4.059439018117E-01
      4 F   8 O    -4.555002287594E-01  2.965452655990E-02  9.405609818830E-02
      5 F   8 O     1.484524468070E-02  6.440157162840E-02  4.703454734401E-01
      6 F   8 O     4.703454734401E-01  1.484524468070E-02  6.440157162840E-02
      7 F   8 O     9.405609818830E-02 -4.555002287594E-01  2.965452655990E-02
      8 F   8 O     4.955632694770E-02  4.851547553193E-01 -4.449977124060E-02
      9 F   8 O     4.851547553193E-01 -4.449977124060E-02  4.955632694770E-02
     10 F   8 O     4.504436730523E-01  4.059439018117E-01  4.355984283716E-01
     11 F   8 O     4.059439018117E-01  4.355984283716E-01  4.504436730523E-01
     12 F   8 O     2.965452655990E-02  9.405609818830E-02 -4.555002287594E-01
     13 F   8 O    -2.965452655990E-02 -4.355984283716E-01 -4.851547553193E-01
     14 F   8 O    -4.504436730523E-01  4.555002287594E-01 -1.484524468070E-02
     15 F   8 O    -4.955632694770E-02 -6.440157162840E-02 -9.405609818830E-02
     16 F   8 O    -4.703454734401E-01  4.449977124060E-02 -4.059439018117E-01
     17 F   8 O    -4.355984283716E-01 -4.851547553193E-01 -2.965452655990E-02
     18 F   8 O    -4.851547553193E-01 -2.965452655990E-02 -4.355984283716E-01
     19 F   8 O     4.449977124060E-02 -4.059439018117E-01 -4.703454734401E-01
     20 F   8 O    -1.484524468070E-02 -4.504436730523E-01  4.555002287594E-01
     21 F   8 O     4.555002287594E-01 -1.484524468070E-02 -4.504436730523E-01
     22 F   8 O    -9.405609818830E-02 -4.955632694770E-02 -6.440157162840E-02
     23 F   8 O    -6.440157162840E-02 -9.405609818830E-02 -4.955632694770E-02
     24 F   8 O    -4.059439018117E-01 -4.703454734401E-01  4.449977124060E-02
     25 T   1 H    -9.079239909630E-02  1.669204648952E-01 -1.593998690097E-01
     26 F   1 H    -1.736796660951E-01  6.860746991338E-02 -3.406001309903E-01
     27 F   1 H    -4.092076009037E-01  4.313925300866E-01  2.577128639915E-01
     28 F   1 H    -3.263203339049E-01  3.330795351048E-01  2.422871360085E-01
     29 F   1 H    -1.593998690097E-01 -9.079239909630E-02  1.669204648952E-01
     30 F   1 H     1.669204648952E-01 -1.593998690097E-01 -9.079239909630E-02
     31 F   1 H     2.422871360085E-01 -3.263203339049E-01  3.330795351048E-01
     32 F   1 H     6.860746991338E-02 -3.406001309903E-01 -1.736796660951E-01
     33 F   1 H    -3.406001309903E-01 -1.736796660951E-01  6.860746991338E-02
     34 F   1 H     4.313925300866E-01  2.577128639915E-01 -4.092076009037E-01
     35 F   1 H     2.577128639915E-01 -4.092076009037E-01  4.313925300866E-01
     36 F   1 H     3.330795351048E-01  2.422871360085E-01 -3.263203339049E-01
     37 F   1 H    -3.330795351048E-01  4.092076009037E-01  3.406001309903E-01
     38 F   1 H    -4.313925300866E-01  3.263203339049E-01  1.593998690097E-01
     39 F   1 H    -6.860746991338E-02  9.079239909630E-02 -2.422871360085E-01
     40 F   1 H    -1.669204648952E-01  1.736796660951E-01 -2.577128639915E-01
     41 F   1 H     4.092076009037E-01  3.406001309903E-01 -3.330795351048E-01
     42 F   1 H     3.406001309903E-01 -3.330795351048E-01  4.092076009037E-01
     43 F   1 H     1.736796660951E-01 -2.577128639915E-01 -1.669204648952E-01
     44 F   1 H     1.593998690097E-01 -4.313925300866E-01  3.263203339049E-01
     45 F   1 H     3.263203339049E-01  1.593998690097E-01 -4.313925300866E-01
     46 F   1 H    -2.422871360085E-01 -6.860746991338E-02  9.079239909630E-02
     47 F   1 H     9.079239909630E-02 -2.422871360085E-01 -6.860746991338E-02
     48 F   1 H    -2.577128639915E-01 -1.669204648952E-01  1.736796660951E-01
     49 T   1 H    -5.818552221810E-02  3.311773458612E-01 -1.714361228043E-01
     50 F   1 H     2.613468665500E-03  1.132506005862E-01 -3.285638771957E-01
     51 F   1 H    -4.418144777819E-01  3.867493994138E-01  3.893628680793E-01
     52 F   1 H     4.973865313345E-01  1.688226541388E-01  1.106371319207E-01
     53 F   1 H    -1.714361228043E-01 -5.818552221810E-02  3.311773458612E-01
     54 F   1 H     3.311773458612E-01 -1.714361228043E-01 -5.818552221810E-02
     55 F   1 H     1.106371319207E-01  4.973865313345E-01  1.688226541388E-01
     56 F   1 H     1.132506005862E-01 -3.285638771957E-01  2.613468665500E-03
     57 F   1 H    -3.285638771957E-01  2.613468665500E-03  1.132506005862E-01
     58 F   1 H     3.867493994138E-01  3.893628680793E-01 -4.418144777819E-01
     59 F   1 H     3.893628680793E-01 -4.418144777819E-01  3.867493994138E-01
     60 F   1 H     1.688226541388E-01  1.106371319207E-01  4.973865313345E-01
     61 F   1 H    -1.688226541388E-01  4.418144777819E-01  3.285638771957E-01
     62 F   1 H    -3.867493994138E-01 -4.973865313345E-01  1.714361228043E-01
     63 F   1 H    -1.132506005862E-01  5.818552221810E-02 -1.106371319207E-01
     64 F   1 H    -3.311773458612E-01 -2.613468665500E-03 -3.893628680793E-01
     65 F   1 H     4.418144777819E-01  3.285638771957E-01 -1.688226541388E-01
     66 F   1 H     3.285638771957E-01 -1.688226541388E-01  4.418144777819E-01
     67 F   1 H    -2.613468665500E-03 -3.893628680793E-01 -3.311773458612E-01
     68 F   1 H     1.714361228043E-01 -3.867493994138E-01 -4.973865313345E-01
     69 F   1 H    -4.973865313345E-01  1.714361228043E-01 -3.867493994138E-01
     70 F   1 H    -1.106371319207E-01 -1.132506005862E-01  5.818552221810E-02
     71 F   1 H     5.818552221810E-02 -1.106371319207E-01 -1.132506005862E-01
     72 F   1 H    -3.893628680793E-01 -3.311773458612E-01 -2.613468665500E-03
     73 T   1 H    -5.369015823010E-02  2.462415010799E-01 -1.073679047268E-01
     74 F   1 H    -1.463905941933E-01  5.367774649668E-02 -3.926320952732E-01
     75 F   1 H    -4.463098417699E-01  4.463222535033E-01  2.999316593100E-01
     76 F   1 H    -3.536094058067E-01  2.537584989201E-01  2.000683406900E-01
     77 F   1 H    -1.073679047268E-01 -5.369015823010E-02  2.462415010799E-01
     78 F   1 H     2.462415010799E-01 -1.073679047268E-01 -5.369015823010E-02
     79 F   1 H     2.000683406900E-01 -3.536094058067E-01  2.537584989201E-01
     80 F   1 H     5.367774649668E-02 -3.926320952732E-01 -1.463905941933E-01
     81 F   1 H    -3.926320952732E-01 -1.463905941933E-01  5.367774649668E-02
     82 F   1 H     4.463222535033E-01  2.999316593100E-01 -4.463098417699E-01
     83 F   1 H     2.999316593100E-01 -4.463098417699E-01  4.463222535033E-01
     84 F   1 H     2.537584989201E-01  2.000683406900E-01 -3.536094058067E-01
     85 F   1 H    -2.537584989201E-01  4.463098417699E-01  3.926320952732E-01
     86 F   1 H    -4.463222535033E-01  3.536094058067E-01  1.073679047268E-01
     87 F   1 H    -5.367774649668E-02  5.369015823010E-02 -2.000683406900E-01
     88 F   1 H    -2.462415010799E-01  1.463905941933E-01 -2.999316593100E-01
     89 F   1 H     4.463098417699E-01  3.926320952732E-01 -2.537584989201E-01
     90 F   1 H     3.926320952732E-01 -2.537584989201E-01  4.463098417699E-01
     91 F   1 H     1.463905941933E-01 -2.999316593100E-01 -2.462415010799E-01
     92 F   1 H     1.073679047268E-01 -4.463222535033E-01  3.536094058067E-01
     93 F   1 H     3.536094058067E-01  1.073679047268E-01 -4.463222535033E-01
     94 F   1 H    -2.000683406900E-01 -5.367774649668E-02  5.369015823010E-02
     95 F   1 H     5.369015823010E-02 -2.000683406900E-01 -5.367774649668E-02
     96 F   1 H    -2.999316593100E-01 -2.462415010799E-01  1.463905941933E-01
     97 T   1 H    -9.861178081760E-02  1.935990803604E-01 -2.645227355140E-01
     98 F   1 H    -4.187818412560E-02  1.659109546964E-01 -2.354772644860E-01
     99 F   1 H    -4.013882191824E-01  3.340890453036E-01  2.922108611780E-01
    100 F   1 H    -4.581218158744E-01  3.064009196396E-01  2.077891388220E-01
    101 F   1 H    -2.645227355140E-01 -9.861178081760E-02  1.935990803604E-01
    102 F   1 H     1.935990803604E-01 -2.645227355140E-01 -9.861178081760E-02
    103 F   1 H     2.077891388220E-01 -4.581218158744E-01  3.064009196396E-01
    104 F   1 H     1.659109546964E-01 -2.354772644860E-01 -4.187818412560E-02
    105 F   1 H    -2.354772644860E-01 -4.187818412560E-02  1.659109546964E-01
    106 F   1 H     3.340890453036E-01  2.922108611780E-01 -4.013882191824E-01
    107 F   1 H     2.922108611780E-01 -4.013882191824E-01  3.340890453036E-01
    108 F   1 H     3.064009196396E-01  2.077891388220E-01 -4.581218158744E-01
    109 F   1 H    -3.064009196396E-01  4.013882191824E-01  2.354772644860E-01
    110 F   1 H    -3.340890453036E-01  4.581218158744E-01  2.645227355140E-01
    111 F   1 H    -1.659109546964E-01  9.861178081760E-02 -2.077891388220E-01
    112 F   1 H    -1.935990803604E-01  4.187818412560E-02 -2.922108611780E-01
    113 F   1 H     4.013882191824E-01  2.354772644860E-01 -3.064009196396E-01
    114 F   1 H     2.354772644860E-01 -3.064009196396E-01  4.013882191824E-01
    115 F   1 H     4.187818412560E-02 -2.922108611780E-01 -1.935990803604E-01
    116 F   1 H     2.645227355140E-01 -3.340890453036E-01  4.581218158744E-01
    117 F   1 H     4.581218158744E-01  2.645227355140E-01 -3.340890453036E-01
    118 F   1 H    -2.077891388220E-01 -1.659109546964E-01  9.861178081760E-02
    119 F   1 H     9.861178081760E-02 -2.077891388220E-01 -1.659109546964E-01
    120 F   1 H    -2.922108611780E-01 -1.935990803604E-01  4.187818412560E-02
    121 T   1 H    -1.490983694290E-02  4.113835273124E-01 -1.186017142257E-01
    122 F   1 H     2.998524153810E-02  1.036918772828E-01 -3.813982857743E-01
    123 F   1 H    -4.850901630571E-01  3.963081227172E-01  4.262933642553E-01
    124 F   1 H     4.700147584619E-01  8.861647268760E-02  7.370663574470E-02
    125 F   1 H    -1.186017142257E-01 -1.490983694290E-02  4.113835273124E-01
    126 F   1 H     4.113835273124E-01 -1.186017142257E-01 -1.490983694290E-02
    127 F   1 H     7.370663574470E-02  4.700147584619E-01  8.861647268760E-02
    128 F   1 H     1.036918772828E-01 -3.813982857743E-01  2.998524153810E-02
    129 F   1 H    -3.813982857743E-01  2.998524153810E-02  1.036918772828E-01
    130 F   1 H     3.963081227172E-01  4.262933642553E-01 -4.850901630571E-01
    131 F   1 H     4.262933642553E-01 -4.850901630571E-01  3.963081227172E-01
    132 F   1 H     8.861647268760E-02  7.370663574470E-02  4.700147584619E-01
    133 F   1 H    -8.861647268760E-02  4.850901630571E-01  3.813982857743E-01
    134 F   1 H    -3.963081227172E-01 -4.700147584619E-01  1.186017142257E-01
    135 F   1 H    -1.036918772828E-01  1.490983694290E-02 -7.370663574470E-02
    136 F   1 H    -4.113835273124E-01 -2.998524153810E-02 -4.262933642553E-01
    137 F   1 H     4.850901630571E-01  3.813982857743E-01 -8.861647268760E-02
    138 F   1 H     3.813982857743E-01 -8.861647268760E-02  4.850901630571E-01
    139 F   1 H    -2.998524153810E-02 -4.262933642553E-01 -4.113835273124E-01
    140 F   1 H     1.186017142257E-01 -3.963081227172E-01 -4.700147584619E-01
    141 F   1 H    -4.700147584619E-01  1.186017142257E-01 -3.963081227172E-01
    142 F   1 H    -7.370663574470E-02 -1.036918772828E-01  1.490983694290E-02
    143 F   1 H     1.490983694290E-02 -7.370663574470E-02 -1.036918772828E-01
    144 F   1 H    -4.262933642553E-01 -4.113835273124E-01 -2.998524153810E-02
    145 T   1 H    -5.893934019030E-02  2.733641420728E-01 -2.120847023750E-01
    146 F   1 H    -1.455115555230E-02  1.531453621847E-01 -2.879152976251E-01
    147 F   1 H    -4.410606598097E-01  3.468546378154E-01  3.323034822631E-01
    148 F   1 H    -4.854488444477E-01  2.266358579273E-01  1.676965177370E-01
    149 F   1 H    -2.120847023749E-01 -5.893934019030E-02  2.733641420728E-01
    150 F   1 H     2.733641420728E-01 -2.120847023750E-01 -5.893934019030E-02
    151 F   1 H     1.676965177369E-01 -4.854488444477E-01  2.266358579273E-01
    152 F   1 H     1.531453621847E-01 -2.879152976251E-01 -1.455115555230E-02
    153 F   1 H    -2.879152976251E-01 -1.455115555230E-02  1.531453621847E-01
    154 F   1 H     3.468546378153E-01  3.323034822631E-01 -4.410606598097E-01
    155 F   1 H     3.323034822630E-01 -4.410606598097E-01  3.468546378154E-01
    156 F   1 H     2.266358579272E-01  1.676965177370E-01 -4.854488444477E-01
    157 F   1 H    -2.266358579272E-01  4.410606598097E-01  2.879152976251E-01
    158 F   1 H    -3.468546378153E-01  4.854488444477E-01  2.120847023750E-01
    159 F   1 H    -1.531453621847E-01  5.893934019030E-02 -1.676965177369E-01
    160 F   1 H    -2.733641420727E-01  1.455115555230E-02 -3.323034822631E-01
    161 F   1 H     4.410606598097E-01  2.879152976251E-01 -2.266358579272E-01
    162 F   1 H     2.879152976250E-01 -2.266358579272E-01  4.410606598097E-01
    163 F   1 H     1.455115555230E-02 -3.323034822631E-01 -2.733641420727E-01
    164 F   1 H     2.120847023750E-01 -3.468546378153E-01  4.854488444477E-01
    165 F   1 H     4.854488444477E-01  2.120847023750E-01 -3.468546378153E-01
    166 F   1 H    -1.676965177369E-01 -1.531453621847E-01  5.893934019030E-02
    167 F   1 H     5.893934019030E-02 -1.676965177369E-01 -1.531453621847E-01
    168 F   1 H    -3.323034822630E-01 -2.733641420727E-01  1.455115555230E-02
    169 T   6 C    -9.887030261150E-02  1.742762004437E-01 -2.160690145460E-01
    170 F   6 C    -1.096547850103E-01  1.171987119345E-01 -2.839309854540E-01
    171 F   6 C    -4.011296973885E-01  3.828012880655E-01  2.731465030552E-01
    172 F   6 C    -3.903452149897E-01  3.257237995563E-01  2.268534969448E-01
    173 F   6 C    -2.160690145460E-01 -9.887030261150E-02  1.742762004437E-01
    174 F   6 C     1.742762004437E-01 -2.160690145460E-01 -9.887030261150E-02
    175 F   6 C     2.268534969448E-01 -3.903452149897E-01  3.257237995563E-01
    176 F   6 C     1.171987119345E-01 -2.839309854540E-01 -1.096547850103E-01
    177 F   6 C    -2.839309854540E-01 -1.096547850103E-01  1.171987119345E-01
    178 F   6 C     3.828012880655E-01  2.731465030552E-01 -4.011296973885E-01
    179 F   6 C     2.731465030552E-01 -4.011296973885E-01  3.828012880655E-01
    180 F   6 C     3.257237995563E-01  2.268534969448E-01 -3.903452149897E-01
    181 F   6 C    -3.257237995563E-01  4.011296973885E-01  2.839309854540E-01
    182 F   6 C    -3.828012880655E-01  3.903452149897E-01  2.160690145460E-01
    183 F   6 C    -1.171987119345E-01  9.887030261150E-02 -2.268534969448E-01
    184 F   6 C    -1.742762004437E-01  1.096547850103E-01 -2.731465030552E-01
    185 F   6 C     4.011296973885E-01  2.839309854540E-01 -3.257237995563E-01
    186 F   6 C     2.839309854540E-01 -3.257237995563E-01  4.011296973885E-01
    187 F   6 C     1.096547850103E-01 -2.731465030552E-01 -1.742762004437E-01
    188 F   6 C     2.160690145460E-01 -3.828012880655E-01  3.903452149897E-01
    189 F   6 C     3.903452149897E-01  2.160690145460E-01 -3.828012880655E-01
    190 F   6 C    -2.268534969448E-01 -1.171987119345E-01  9.887030261150E-02
    191 F   6 C     9.887030261150E-02 -2.268534969448E-01 -1.171987119345E-01
    192 F   6 C    -2.731465030552E-01 -1.742762004437E-01  1.096547850103E-01
    193 T   6 C    -8.942035758310E-02  2.052831336524E-01 -2.299952435305E-01
    194 F   6 C    -6.472162281710E-02  1.405748859474E-01 -2.700047564695E-01
    195 F   6 C    -4.105796424169E-01  3.594251140526E-01  2.947034912355E-01
    196 F   6 C    -4.352783771829E-01  2.947168663476E-01  2.052965087645E-01
    197 F   6 C    -2.299952435305E-01 -8.942035758310E-02  2.052831336524E-01
    198 F   6 C     2.052831336524E-01 -2.299952435305E-01 -8.942035758310E-02
    199 F   6 C     2.052965087645E-01 -4.352783771829E-01  2.947168663476E-01
    200 F   6 C     1.405748859474E-01 -2.700047564695E-01 -6.472162281710E-02
    201 F   6 C    -2.700047564695E-01 -6.472162281710E-02  1.405748859474E-01
    202 F   6 C     3.594251140526E-01  2.947034912355E-01 -4.105796424169E-01
    203 F   6 C     2.947034912355E-01 -4.105796424169E-01  3.594251140526E-01
    204 F   6 C     2.947168663476E-01  2.052965087645E-01 -4.352783771829E-01
    205 F   6 C    -2.947168663476E-01  4.105796424169E-01  2.700047564695E-01
    206 F   6 C    -3.594251140526E-01  4.352783771829E-01  2.299952435305E-01
    207 F   6 C    -1.405748859474E-01  8.942035758310E-02 -2.052965087645E-01
    208 F   6 C    -2.052831336524E-01  6.472162281710E-02 -2.947034912355E-01
    209 F   6 C     4.105796424169E-01  2.700047564695E-01 -2.947168663476E-01
    210 F   6 C     2.700047564695E-01 -2.947168663476E-01  4.105796424169E-01
    211 F   6 C     6.472162281710E-02 -2.947034912355E-01 -2.052831336524E-01
    212 F   6 C     2.299952435305E-01 -3.594251140526E-01  4.352783771829E-01
    213 F   6 C     4.352783771829E-01  2.299952435305E-01 -3.594251140526E-01
    214 F   6 C    -2.052965087645E-01 -1.405748859474E-01  8.942035758310E-02
    215 F   6 C     8.942035758310E-02 -2.052965087645E-01 -1.405748859474E-01
    216 F   6 C    -2.947034912355E-01 -2.052831336524E-01  6.472162281710E-02
    217 T   6 C    -6.719832314890E-02  2.501530814976E-01 -2.004356817279E-01
    218 F   6 C    -4.941123677450E-02  1.332373585790E-01 -2.995643182721E-01
    219 F   6 C    -4.328016768511E-01  3.667626414210E-01  3.173514046465E-01
    220 F   6 C    -4.505887632255E-01  2.498469185024E-01  1.826485953535E-01
    221 F   6 C    -2.004356817279E-01 -6.719832314890E-02  2.501530814976E-01
    222 F   6 C     2.501530814976E-01 -2.004356817279E-01 -6.719832314890E-02
    223 F   6 C     1.826485953535E-01 -4.505887632255E-01  2.498469185024E-01
    224 F   6 C     1.332373585790E-01 -2.995643182721E-01 -4.941123677450E-02
    225 F   6 C    -2.995643182721E-01 -4.941123677450E-02  1.332373585790E-01
    226 F   6 C     3.667626414210E-01  3.173514046465E-01 -4.328016768511E-01
    227 F   6 C     3.173514046465E-01 -4.328016768511E-01  3.667626414210E-01
    228 F   6 C     2.498469185024E-01  1.826485953535E-01 -4.505887632255E-01
    229 F   6 C    -2.498469185024E-01  4.328016768511E-01  2.995643182721E-01
    230 F   6 C    -3.667626414210E-01  4.505887632255E-01  2.004356817279E-01
    231 F   6 C    -1.332373585790E-01  6.719832314890E-02 -1.826485953535E-01
    232 F   6 C    -2.501530814976E-01  4.941123677450E-02 -3.173514046465E-01
    233 F   6 C     4.328016768511E-01  2.995643182721E-01 -2.498469185024E-01
    234 F   6 C     2.995643182721E-01 -2.498469185024E-01  4.328016768511E-01
    235 F   6 C     4.941123677450E-02 -3.173514046465E-01 -2.501530814976E-01
    236 F   6 C     2.004356817279E-01 -3.667626414210E-01  4.505887632255E-01
    237 F   6 C     4.505887632255E-01  2.004356817279E-01 -3.667626414210E-01
    238 F   6 C    -1.826485953535E-01 -1.332373585790E-01  6.719832314890E-02
    239 F   6 C     6.719832314890E-02 -1.826485953535E-01 -1.332373585790E-01
    240 F   6 C    -3.173514046465E-01 -2.501530814976E-01  4.941123677450E-02
    241 T   6 C    -6.309020380860E-02  2.350746003674E-01 -1.418483941468E-01
    242 F   6 C    -1.230770054858E-01  7.875819033823E-02 -3.581516058532E-01
    243 F   6 C    -4.369097961914E-01  4.212418096618E-01  2.981648041760E-01
    244 F   6 C    -3.769229945142E-01  2.649253996326E-01  2.018351958240E-01
    245 F   6 C    -1.418483941468E-01 -6.309020380860E-02  2.350746003674E-01
    246 F   6 C     2.350746003674E-01 -1.418483941468E-01 -6.309020380860E-02
    247 F   6 C     2.018351958240E-01 -3.769229945142E-01  2.649253996326E-01
    248 F   6 C     7.875819033823E-02 -3.581516058532E-01 -1.230770054858E-01
    249 F   6 C    -3.581516058532E-01 -1.230770054858E-01  7.875819033823E-02
    250 F   6 C     4.212418096618E-01  2.981648041760E-01 -4.369097961914E-01
    251 F   6 C     2.981648041760E-01 -4.369097961914E-01  4.212418096618E-01
    252 F   6 C     2.649253996326E-01  2.018351958240E-01 -3.769229945142E-01
    253 F   6 C    -2.649253996326E-01  4.369097961914E-01  3.581516058532E-01
    254 F   6 C    -4.212418096618E-01  3.769229945142E-01  1.418483941468E-01
    255 F   6 C    -7.875819033823E-02  6.309020380860E-02 -2.018351958240E-01
    256 F   6 C    -2.350746003674E-01  1.230770054858E-01 -2.981648041760E-01
    257 F   6 C     4.369097961914E-01  3.581516058532E-01 -2.649253996326E-01
    258 F   6 C     3.581516058532E-01 -2.649253996326E-01  4.369097961914E-01
    259 F   6 C     1.230770054858E-01 -2.981648041760E-01 -2.350746003674E-01
    260 F   6 C     1.418483941468E-01 -4.212418096618E-01  3.769229945142E-01
    261 F   6 C     3.769229945142E-01  1.418483941468E-01 -4.212418096618E-01
    262 F   6 C    -2.018351958240E-01 -7.875819033823E-02  6.309020380860E-02
    263 F   6 C     6.309020380860E-02 -2.018351958240E-01 -7.875819033823E-02
    264 F   6 C    -2.981648041760E-01 -2.350746003674E-01  1.230770054858E-01
    265 T   6 C    -5.353746359060E-02  2.661752901942E-01 -1.555380244096E-01
    266 F   6 C    -7.828668539620E-02  1.020005608190E-01 -3.444619755904E-01
    267 F   6 C    -4.464625364094E-01  3.979994391810E-01  3.197127537848E-01
    268 F   6 C    -4.217133146038E-01  2.338247098058E-01  1.802872462152E-01
    269 F   6 C    -1.555380244096E-01 -5.353746359060E-02  2.661752901942E-01
    270 F   6 C     2.661752901942E-01 -1.555380244096E-01 -5.353746359060E-02
    271 F   6 C     1.802872462152E-01 -4.217133146038E-01  2.338247098058E-01
    272 F   6 C     1.020005608190E-01 -3.444619755904E-01 -7.828668539620E-02
    273 F   6 C    -3.444619755904E-01 -7.828668539620E-02  1.020005608190E-01
    274 F   6 C     3.979994391810E-01  3.197127537848E-01 -4.464625364094E-01
    275 F   6 C     3.197127537848E-01 -4.464625364094E-01  3.979994391810E-01
    276 F   6 C     2.338247098058E-01  1.802872462152E-01 -4.217133146038E-01
    277 F   6 C    -2.338247098058E-01  4.464625364094E-01  3.444619755904E-01
    278 F   6 C    -3.979994391810E-01  4.217133146038E-01  1.555380244096E-01
    279 F   6 C    -1.020005608190E-01  5.353746359060E-02 -1.802872462152E-01
    280 F   6 C    -2.661752901942E-01  7.828668539620E-02 -3.197127537848E-01
    281 F   6 C     4.464625364094E-01  3.444619755904E-01 -2.338247098058E-01
    282 F   6 C     3.444619755904E-01 -2.338247098058E-01  4.464625364094E-01
    283 F   6 C     7.828668539620E-02 -3.197127537848E-01 -2.661752901942E-01
    284 F   6 C     1.555380244096E-01 -3.979994391810E-01  4.217133146038E-01
    285 F   6 C     4.217133146038E-01  1.555380244096E-01 -3.979994391810E-01
    286 F   6 C    -1.802872462152E-01 -1.020005608190E-01  5.353746359060E-02
    287 F   6 C     5.353746359060E-02 -1.802872462152E-01 -1.020005608190E-01
    288 F   6 C    -3.197127537848E-01 -2.661752901942E-01  7.828668539620E-02
    289 T   6 C     2.267288009660E-02  3.753778073627E-01 -4.956493760510E-02
    290 F   6 C    -7.505725503220E-02  7.223781770170E-02 -4.504350623949E-01
    291 F   6 C     4.773271199034E-01  4.277621822983E-01  3.527049272661E-01
    292 F   6 C    -4.249427449678E-01  1.246221926373E-01  1.472950727339E-01
    293 F   6 C    -4.956493760510E-02  2.267288009660E-02  3.753778073627E-01
    294 F   6 C     3.753778073627E-01 -4.956493760510E-02  2.267288009660E-02
    295 F   6 C     1.472950727339E-01 -4.249427449678E-01  1.246221926373E-01
    296 F   6 C     7.223781770170E-02 -4.504350623949E-01 -7.505725503220E-02
    297 F   6 C    -4.504350623949E-01 -7.505725503220E-02  7.223781770170E-02
    298 F   6 C     4.277621822983E-01  3.527049272661E-01  4.773271199034E-01
    299 F   6 C     3.527049272661E-01  4.773271199034E-01  4.277621822983E-01
    300 F   6 C     1.246221926373E-01  1.472950727339E-01 -4.249427449678E-01
    301 F   6 C    -1.246221926373E-01 -4.773271199034E-01  4.504350623949E-01
    302 F   6 C    -4.277621822983E-01  4.249427449678E-01  4.956493760510E-02
    303 F   6 C    -7.223781770170E-02 -2.267288009660E-02 -1.472950727339E-01
    304 F   6 C    -3.753778073627E-01  7.505725503220E-02 -3.527049272661E-01
    305 F   6 C    -4.773271199034E-01  4.504350623949E-01 -1.246221926373E-01
    306 F   6 C     4.504350623949E-01 -1.246221926373E-01 -4.773271199034E-01
    307 F   6 C     7.505725503220E-02 -3.527049272661E-01 -3.753778073627E-01
    308 F   6 C     4.956493760510E-02 -4.277621822983E-01  4.249427449678E-01
    309 F   6 C     4.249427449678E-01  4.956493760510E-02 -4.277621822983E-01
    310 F   6 C    -1.472950727339E-01 -7.223781770170E-02 -2.267288009660E-02
    311 F   6 C    -2.267288009660E-02 -1.472950727339E-01 -7.223781770170E-02
    312 F   6 C    -3.527049272661E-01 -3.753778073627E-01  7.505725503220E-02
    313 T   6 C    -8.490865495660E-02  1.901577269461E-01 -1.713579211333E-01
    314 F   6 C    -1.384843519206E-01  8.644926617670E-02 -3.286420788667E-01
    315 F   6 C    -4.150913450434E-01  4.135507338233E-01  2.750663819027E-01
    316 F   6 C    -3.615156480794E-01  3.098422730539E-01  2.249336180973E-01
    317 F   6 C    -1.713579211333E-01 -8.490865495660E-02  1.901577269461E-01
    318 F   6 C     1.901577269461E-01 -1.713579211333E-01 -8.490865495660E-02
    319 F   6 C     2.249336180973E-01 -3.615156480794E-01  3.098422730539E-01
    320 F   6 C     8.644926617670E-02 -3.286420788667E-01 -1.384843519206E-01
    321 F   6 C    -3.286420788667E-01 -1.384843519206E-01  8.644926617670E-02
    322 F   6 C     4.135507338233E-01  2.750663819027E-01 -4.150913450434E-01
    323 F   6 C     2.750663819027E-01 -4.150913450434E-01  4.135507338233E-01
    324 F   6 C     3.098422730539E-01  2.249336180973E-01 -3.615156480794E-01
    325 F   6 C    -3.098422730539E-01  4.150913450434E-01  3.286420788667E-01
    326 F   6 C    -4.135507338233E-01  3.615156480794E-01  1.713579211333E-01
    327 F   6 C    -8.644926617670E-02  8.490865495660E-02 -2.249336180973E-01
    328 F   6 C    -1.901577269461E-01  1.384843519206E-01 -2.750663819027E-01
    329 F   6 C     4.150913450434E-01  3.286420788667E-01 -3.098422730539E-01
    330 F   6 C     3.286420788667E-01 -3.098422730539E-01  4.150913450434E-01
    331 F   6 C     1.384843519206E-01 -2.750663819027E-01 -1.901577269461E-01
    332 F   6 C     1.713579211333E-01 -4.135507338233E-01  3.615156480794E-01
[...]
  321     6 C     5.951675116984E+00 -2.221131933952E+00 -1.189759142731E+01
  322     6 C     9.580224121154E+00  1.552614043148E+01  2.221131933952E+00
  323     6 C     1.552614043148E+01  2.221131933952E+00  9.580224121154E+00
  324     6 C     1.189759142731E+01  1.552614043148E+01 -2.221131933952E+00
  325     6 C     1.158683653080E+00  1.296003970819E+01  1.669058289122E+01
  326     6 C    -1.158683653080E+00  8.517775840282E+00  1.669058289122E+01
  327     6 C    -1.158683653080E+00 -8.517775840282E+00  4.787232657250E+00
  328     6 C     1.158683653080E+00 -1.296003970819E+01  4.787232657250E+00
  329     6 C     1.296003970819E+01  1.669058289122E+01  1.158683653080E+00
  330     6 C     1.669058289122E+01  1.158683653080E+00  1.296003970819E+01
  331     6 C    -1.296003970819E+01  4.787232657250E+00  1.158683653080E+00
  332     6 C     1.669058289122E+01 -1.158683653080E+00  8.517775840282E+00
  333     6 C     8.517775840282E+00  1.669058289122E+01 -1.158683653080E+00
  334     6 C     4.787232657250E+00 -1.158683653080E+00 -8.517775840282E+00
  335     6 C    -8.517775840282E+00  4.787232657250E+00 -1.158683653080E+00
  336     6 C     4.787232657250E+00  1.158683653080E+00 -1.296003970819E+01
  337     1 H     7.002189278312E+00 -7.661588568927E+00  9.662030740204E+00
  338     1 H    -7.002189278312E+00 -1.381622697954E+01  9.662030740204E+00
  339     1 H     7.002189278312E+00  7.661588568927E+00  1.181578480826E+01
  340     1 H     1.447562627016E+01 -7.661588568927E+00 -9.662030740204E+00
  341     1 H     9.662030740204E+00  7.002189278312E+00 -7.661588568927E+00
  342     1 H    -7.661588568927E+00  9.662030740204E+00  7.002189278312E+00
  343     1 H    -9.662030740204E+00  1.447562627016E+01 -7.661588568927E+00
  344     1 H    -1.381622697954E+01  9.662030740204E+00 -7.002189278312E+00
  345     1 H     9.662030740204E+00 -7.002189278312E+00 -1.381622697954E+01
  346     1 H     7.661588568927E+00  1.181578480826E+01  7.002189278312E+00
  347     1 H     1.181578480826E+01  7.002189278312E+00  7.661588568927E+00
  348     1 H    -7.661588568927E+00 -9.662030740204E+00  1.447562627016E+01
  349     1 H    -1.840049634316E+01 -3.736718495922E+00 -1.076877034030E+00
  350     1 H    -3.077319205307E+00  3.736718495922E+00  2.040093851444E+01
  351     1 H    -3.077319205307E+00 -3.736718495922E+00  1.076877034030E+00
  352     1 H     3.077319205307E+00 -1.774109705255E+01  1.076877034030E+00
  353     1 H    -3.736718495922E+00 -1.076877034030E+00 -1.840049634316E+01
  354     1 H    -1.076877034030E+00 -1.840049634316E+01 -3.736718495922E+00
  355     1 H    -1.774109705255E+01  1.076877034030E+00  3.077319205307E+00
  356     1 H     2.040093851444E+01 -3.077319205307E+00  3.736718495922E+00
  357     1 H     3.736718495922E+00  2.040093851444E+01 -3.077319205307E+00
  358     1 H     1.076877034030E+00 -3.077319205307E+00 -3.736718495922E+00
  359     1 H    -3.736718495922E+00  1.076877034030E+00 -3.077319205307E+00
  360     1 H     1.076877034030E+00  3.077319205307E+00 -1.774109705255E+01
  361     6 C     5.174001898470E+00 -1.106308218349E+01  9.586146469719E+00
  362     6 C    -5.174001898470E+00 -1.041473336498E+01  9.586146469719E+00
  363     6 C     5.174001898470E+00  1.106308218349E+01  1.189166907875E+01
  364     6 C    -5.174001898470E+00  1.041473336498E+01  1.189166907875E+01
  365     6 C     9.586146469719E+00  5.174001898470E+00 -1.106308218349E+01
  366     6 C    -1.106308218349E+01  9.586146469719E+00  5.174001898470E+00
  367     6 C     1.189166907875E+01 -5.174001898470E+00  1.041473336498E+01
  368     6 C    -1.041473336498E+01  9.586146469719E+00 -5.174001898470E+00
  369     6 C     9.586146469719E+00 -5.174001898470E+00 -1.041473336498E+01
  370     6 C     1.106308218349E+01  1.189166907875E+01  5.174001898470E+00
  371     6 C     1.189166907875E+01  5.174001898470E+00  1.106308218349E+01
  372     6 C     1.041473336498E+01  1.189166907875E+01 -5.174001898470E+00
  373     6 C     2.115364113921E+01 -5.564905875764E+00 -1.152761304515E+00
  374     6 C     3.241744092561E-01  5.564905875764E+00  2.032505424395E+01
  375     6 C     3.241744092561E-01 -5.564905875764E+00  1.152761304515E+00
  376     6 C    -3.241744092561E-01 -1.591290967270E+01  1.152761304515E+00
  377     6 C    -5.564905875764E+00 -1.152761304515E+00  2.115364113921E+01
  378     6 C    -1.152761304515E+00  2.115364113921E+01 -5.564905875764E+00
  379     6 C    -1.591290967270E+01  1.152761304515E+00 -3.241744092561E-01
  380     6 C     2.032505424395E+01  3.241744092561E-01  5.564905875764E+00
  381     6 C     5.564905875764E+00  2.032505424395E+01  3.241744092561E-01
  382     6 C     1.152761304515E+00  3.241744092561E-01 -5.564905875764E+00
  383     6 C    -5.564905875764E+00  1.152761304515E+00  3.241744092561E-01
  384     6 C     1.152761304515E+00 -3.241744092561E-01 -1.591290967270E+01
  385     6 C     6.949309693690E+00 -9.656204388721E+00  1.046317896601E+01
  386     6 C    -6.949309693690E+00 -1.182161115975E+01  1.046317896601E+01
  387     6 C     6.949309693690E+00  9.656204388721E+00  1.101463658246E+01
  388     6 C    -6.949309693690E+00  1.182161115975E+01  1.101463658246E+01
  389     6 C     1.046317896601E+01  6.949309693690E+00 -9.656204388721E+00
  390     6 C    -9.656204388721E+00  1.046317896601E+01  6.949309693690E+00
  391     6 C     1.101463658246E+01 -6.949309693690E+00  1.182161115975E+01
  392     6 C    -1.182161115975E+01  1.046317896601E+01 -6.949309693690E+00
  393     6 C     1.046317896601E+01 -6.949309693690E+00 -1.182161115975E+01
  394     6 C     9.656204388721E+00  1.101463658246E+01  6.949309693690E+00
  395     6 C     1.101463658246E+01  6.949309693690E+00  9.656204388721E+00
  396     6 C     1.182161115975E+01  1.101463658246E+01 -6.949309693690E+00
  397     6 C    -2.039511216295E+01 -3.789598080544E+00 -2.757288082290E-01
  398     6 C    -1.082703385513E+00  3.789598080544E+00  2.120208674024E+01
  399     6 C    -1.082703385513E+00 -3.789598080544E+00  2.757288082290E-01
  400     6 C     1.082703385513E+00 -1.768821746792E+01  2.757288082290E-01
  401     6 C    -3.789598080544E+00 -2.757288082290E-01 -2.039511216295E+01
  402     6 C    -2.757288082290E-01 -2.039511216295E+01 -3.789598080544E+00
  403     6 C    -1.768821746792E+01  2.757288082290E-01  1.082703385513E+00
  404     6 C     2.120208674024E+01 -1.082703385513E+00  3.789598080544E+00
  405     6 C     3.789598080544E+00  2.120208674024E+01 -1.082703385513E+00
  406     6 C     2.757288082290E-01 -1.082703385513E+00 -3.789598080544E+00
  407     6 C    -3.789598080544E+00  2.757288082290E-01 -1.082703385513E+00
  408     6 C     2.757288082290E-01  1.082703385513E+00 -1.768821746792E+01
  409     1 H     4.997055955939E+00 -7.949909657411E+00  8.249769462329E+00
  410     1 H    -4.997055955939E+00 -1.352790589106E+01  8.249769462329E+00
  411     1 H     4.997055955939E+00  7.949909657411E+00  1.322804608614E+01
  412     1 H    -4.997055955939E+00  1.352790589106E+01  1.322804608614E+01
  413     1 H     8.249769462329E+00  4.997055955939E+00 -7.949909657411E+00
  414     1 H    -7.949909657411E+00  8.249769462329E+00  4.997055955939E+00
  415     1 H     1.322804608614E+01 -4.997055955939E+00  1.352790589106E+01
  416     1 H    -1.352790589106E+01  8.249769462329E+00 -4.997055955939E+00
  417     1 H     8.249769462329E+00 -4.997055955939E+00 -1.352790589106E+01
  418     1 H     7.949909657411E+00  1.322804608614E+01  4.997055955939E+00
  419     1 H     1.322804608614E+01  4.997055955939E+00  7.949909657411E+00
  420     1 H     1.352790589106E+01  1.322804608614E+01 -4.997055955939E+00
  421     1 H    -1.868881743165E+01 -5.741851818295E+00 -2.489138311905E+00
  422     1 H    -2.788998116823E+00  5.741851818295E+00  1.898867723656E+01
  423     1 H    -2.788998116823E+00 -5.741851818295E+00  2.489138311905E+00
  424     1 H     2.788998116823E+00 -1.573596373017E+01  2.489138311905E+00
  425     1 H    -5.741851818295E+00 -2.489138311905E+00 -1.868881743165E+01
  426     1 H    -2.489138311905E+00 -1.868881743165E+01 -5.741851818295E+00
  427     1 H    -1.573596373017E+01  2.489138311905E+00  2.788998116823E+00
  428     1 H     1.898867723656E+01 -2.788998116823E+00  5.741851818295E+00
  429     1 H     5.741851818295E+00  1.898867723656E+01 -2.788998116823E+00
  430     1 H     2.489138311905E+00 -2.788998116823E+00 -5.741851818295E+00
  431     1 H    -5.741851818295E+00  2.489138311905E+00 -2.788998116823E+00
  432     1 H     2.489138311905E+00  2.788998116823E+00 -1.573596373017E+01
  433     6 C     5.370832249843E+00 -8.789416433731E+00  8.834115804234E+00
  434     6 C    -5.370832249843E+00 -1.268839911474E+01  8.834115804234E+00
  435     6 C     5.370832249843E+00  8.789416433731E+00  1.264369974423E+01
  436     6 C    -5.370832249843E+00  1.268839911474E+01  1.264369974423E+01
  437     6 C     8.834115804234E+00  5.370832249843E+00 -8.789416433731E+00
  438     6 C    -8.789416433731E+00  8.834115804234E+00  5.370832249843E+00
  439     6 C     1.264369974423E+01 -5.370832249843E+00  1.268839911474E+01
  440     6 C    -1.268839911474E+01  8.834115804234E+00 -5.370832249843E+00
  441     6 C     8.834115804234E+00 -5.370832249843E+00 -1.268839911474E+01
  442     6 C     8.789416433731E+00  1.264369974423E+01  5.370832249843E+00
  443     6 C     1.264369974423E+01  5.370832249843E+00  8.789416433731E+00
  444     6 C     1.268839911474E+01  1.264369974423E+01 -5.370832249843E+00
  445     6 C    -1.952832420797E+01 -5.368075524391E+00 -1.904791970000E+00
  446     6 C    -1.949491340503E+00  5.368075524391E+00  1.957302357847E+01
  447     6 C    -1.949491340503E+00 -5.368075524391E+00  1.904791970000E+00
  448     6 C     1.949491340503E+00 -1.610974002408E+01  1.904791970000E+00
  449     6 C    -5.368075524391E+00 -1.904791970000E+00 -1.952832420797E+01
  450     6 C    -1.904791970000E+00 -1.952832420797E+01 -5.368075524391E+00
  451     6 C    -1.610974002408E+01  1.904791970000E+00  1.949491340503E+00
  452     6 C     1.957302357847E+01 -1.949491340503E+00  5.368075524391E+00
  453     6 C     5.368075524391E+00  1.957302357847E+01 -1.949491340503E+00
  454     6 C     1.904791970000E+00 -1.949491340503E+00 -5.368075524391E+00
  455     6 C    -5.368075524391E+00  1.904791970000E+00 -1.949491340503E+00
  456     6 C     1.904791970000E+00  1.949491340503E+00 -1.610974002408E+01
  457     6 C     4.696816817227E+00 -1.001771422261E+01  8.782933273578E+00
  458     6 C    -4.696816817227E+00 -1.146010132586E+01  8.782933273578E+00
  459     6 C     4.696816817227E+00  1.001771422261E+01  1.269488227489E+01
  460     6 C    -4.696816817227E+00  1.146010132586E+01  1.269488227489E+01
  461     6 C     8.782933273578E+00  4.696816817227E+00 -1.001771422261E+01
  462     6 C    -1.001771422261E+01  8.782933273578E+00  4.696816817227E+00
  463     6 C     1.269488227489E+01 -4.696816817227E+00  1.146010132586E+01
  464     6 C    -1.146010132586E+01  8.782933273578E+00 -4.696816817227E+00
  465     6 C     8.782933273578E+00 -4.696816817227E+00 -1.146010132586E+01
  466     6 C     1.001771422261E+01  1.269488227489E+01  4.696816817227E+00
  467     6 C     1.269488227489E+01  4.696816817227E+00  1.001771422261E+01
  468     6 C     1.146010132586E+01  1.269488227489E+01 -4.696816817227E+00
  469     6 C    -2.075662199684E+01 -6.042090957007E+00 -1.955974500656E+00
  470     6 C    -7.211935516284E-01  6.042090957007E+00  1.952184104781E+01
  471     6 C    -7.211935516284E-01 -6.042090957007E+00  1.955974500656E+00
  472     6 C     7.211935516284E-01 -1.543572459146E+01  1.955974500656E+00
  473     6 C    -6.042090957007E+00 -1.955974500656E+00 -2.075662199684E+01
  474     6 C    -1.955974500656E+00 -2.075662199684E+01 -6.042090957007E+00
  475     6 C    -1.543572459146E+01  1.955974500656E+00  7.211935516284E-01
  476     6 C     1.952184104781E+01 -7.211935516284E-01  6.042090957007E+00
  477     6 C     6.042090957007E+00  1.952184104781E+01 -7.211935516284E-01
  478     6 C     1.955974500656E+00 -7.211935516284E-01 -6.042090957007E+00
  479     6 C    -6.042090957007E+00  1.955974500656E+00 -7.211935516284E-01
  480     6 C     1.955974500656E+00  7.211935516284E-01 -1.543572459146E+01
  481     6 C     6.264924871094E+00 -1.087737681893E+01  1.042345362100E+01
  482     6 C    -6.264924871094E+00 -1.060043872953E+01  1.042345362100E+01
  483     6 C     6.264924871094E+00  1.087737681893E+01  1.105436192747E+01
  484     6 C    -6.264924871094E+00  1.060043872953E+01  1.105436192747E+01
  485     6 C     1.042345362100E+01  6.264924871094E+00 -1.087737681893E+01
  486     6 C    -1.087737681893E+01  1.042345362100E+01  6.264924871094E+00
  487     6 C     1.105436192747E+01 -6.264924871094E+00  1.060043872953E+01
  488     6 C    -1.060043872953E+01  1.042345362100E+01 -6.264924871094E+00
  489     6 C     1.042345362100E+01 -6.264924871094E+00 -1.060043872953E+01
  490     6 C     1.087737681893E+01  1.105436192747E+01  6.264924871094E+00
  491     6 C     1.105436192747E+01  6.264924871094E+00  1.087737681893E+01
  492     6 C     1.060043872953E+01  1.105436192747E+01 -6.264924871094E+00
  493     6 C     2.133934650377E+01 -4.473982903140E+00 -3.154541532345E-01
  494     6 C     1.384690446994E-01  4.473982903140E+00  2.116236139523E+01
  495     6 C     1.384690446994E-01 -4.473982903140E+00  3.154541532345E-01
  496     6 C    -1.384690446994E-01 -1.700383264533E+01  3.154541532345E-01
  497     6 C    -4.473982903140E+00 -3.154541532345E-01  2.133934650377E+01
  498     6 C    -3.154541532345E-01  2.133934650377E+01 -4.473982903140E+00
  499     6 C    -1.700383264533E+01  3.154541532345E-01 -1.384690446994E-01
  500     6 C     2.116236139523E+01  1.384690446994E-01  4.473982903140E+00
  501     6 C     4.473982903140E+00  2.116236139523E+01  1.384690446994E-01
  502     6 C     3.154541532345E-01  1.384690446994E-01 -4.473982903140E+00
  503     6 C    -4.473982903140E+00  3.154541532345E-01  1.384690446994E-01
  504     6 C     3.154541532345E-01 -1.384690446994E-01 -1.700383264533E+01
  505     5 B     8.158171428708E+00 -9.442988345205E+00  1.139199091718E+01
  506     5 B    -8.158171428708E+00 -1.203482720326E+01  1.139199091718E+01
  507     5 B     8.158171428708E+00  9.442988345205E+00  1.008582463129E+01
  508     5 B    -8.158171428708E+00  1.203482720326E+01  1.008582463129E+01
  509     5 B     1.139199091718E+01  8.158171428708E+00 -9.442988345205E+00
  510     5 B    -9.442988345205E+00  1.139199091718E+01  8.158171428708E+00
  511     5 B     1.008582463129E+01 -8.158171428708E+00  1.203482720326E+01
  512     5 B    -1.203482720326E+01  1.139199091718E+01 -8.158171428708E+00
  513     5 B     1.139199091718E+01 -8.158171428708E+00 -1.203482720326E+01
  514     5 B     9.442988345205E+00  1.008582463129E+01  8.158171428708E+00
  515     5 B     1.008582463129E+01  8.158171428708E+00  9.442988345205E+00
  516     5 B     1.203482720326E+01  1.008582463129E+01 -8.158171428708E+00
  517     5 B    -2.018189611944E+01 -2.580736345527E+00  6.530831429411E-01
  518     5 B    -1.295919429029E+00  2.580736345527E+00 -2.082473240553E+01
  519     5 B    -1.295919429029E+00 -2.580736345527E+00 -6.530831429411E-01
  520     5 B     1.295919429029E+00 -1.889707920294E+01 -6.530831429411E-01
  521     5 B    -2.580736345527E+00  6.530831429411E-01 -2.018189611944E+01
  522     5 B     6.530831429411E-01 -2.018189611944E+01 -2.580736345527E+00
  523     5 B    -1.889707920294E+01 -6.530831429411E-01  1.295919429029E+00
  524     5 B    -2.082473240553E+01 -1.295919429029E+00  2.580736345527E+00
  525     5 B     2.580736345527E+00 -2.082473240553E+01 -1.295919429029E+00
  526     5 B    -6.530831429411E-01 -1.295919429029E+00 -2.580736345527E+00
  527     5 B    -2.580736345527E+00 -6.530831429411E-01 -1.295919429029E+00
  528     5 B    -6.530831429411E-01  1.295919429029E+00 -1.889707920294E+01
  529     6 C     1.073890777423E+01  1.610836166135E+01 -1.870556055594E-15
  530     6 C    -1.073890777423E+01  5.369453887117E+00 -1.402917041696E-15
  531     6 C    -9.352780277971E-16  1.073890777423E+01  1.610836166135E+01
  532     6 C     1.610836166135E+01 -1.870556055594E-15  1.073890777423E+01
  533     6 C     5.369453887117E+00 -1.402917041696E-15 -1.073890777423E+01
  534     6 C     0.000000000000E+00 -1.073890777423E+01  5.369453887117E+00

 ****   24 SYMMOPS - TRANSLATORS IN FRACTIONAL UNITS
 **** MATRICES AND TRANSLATORS IN THE CRYSTALLOGRAPHIC REFERENCE FRAME
   V INV                    ROTATION MATRICES                   TRANSLATORS
   1   1  1.00  0.00  0.00  0.00  1.00  0.00  0.00  0.00  1.00  0.00  0.00  0.00
   2   2  0.00  1.00 -1.00  1.00  0.00 -1.00  0.00  0.00 -1.00  0.50  0.00  0.50
   3   3 -1.00  0.00  0.00 -1.00  0.00  1.00 -1.00  1.00  0.00  0.50  0.50  0.00
   4   4  0.00 -1.00  1.00  0.00 -1.00  0.00  1.00 -1.00  0.00  0.00  0.50  0.50
   5   6  0.00  0.00  1.00  1.00  0.00  0.00  0.00  1.00  0.00  0.00  0.00  0.00
   6   5  0.00  1.00  0.00  0.00  0.00  1.00  1.00  0.00  0.00  0.00  0.00  0.00
   7   8  1.00 -1.00  0.00  0.00 -1.00  1.00  0.00 -1.00  0.00  0.50  0.00  0.50
   8   7  1.00  0.00 -1.00  0.00  0.00 -1.00  0.00  1.00 -1.00  0.00  0.50  0.50
   9  10  0.00  0.00 -1.00  0.00  1.00 -1.00  1.00  0.00 -1.00  0.50  0.50  0.00
  10   9 -1.00  0.00  1.00 -1.00  1.00  0.00 -1.00  0.00  0.00  0.50  0.00  0.50
  11  12 -1.00  1.00  0.00 -1.00  0.00  0.00 -1.00  0.00  1.00  0.00  0.50  0.50
  12  11  0.00 -1.00  0.00  1.00 -1.00  0.00  0.00 -1.00  1.00  0.50  0.50  0.00
  13  13  0.00  1.00  0.00  1.00  0.00  0.00  0.00  0.00  1.00  0.50  0.50  0.50
  14  14  1.00  0.00 -1.00  0.00  1.00 -1.00  0.00  0.00 -1.00  0.50  1.00  1.00
  15  16 -1.00  0.00  1.00 -1.00  0.00  0.00 -1.00  1.00  0.00  1.00  1.00  0.50
  16  15  0.00 -1.00  0.00  0.00 -1.00  1.00  1.00 -1.00  0.00  1.00  0.50  1.00
  17  17  1.00  0.00  0.00  0.00  0.00  1.00  0.00  1.00  0.00  0.50  0.50  0.50
  18  18  0.00  0.00  1.00  0.00  1.00  0.00  1.00  0.00  0.00  0.50  0.50  0.50
  19  21  0.00 -1.00  1.00  1.00 -1.00  0.00  0.00 -1.00  0.00  0.50  1.00  1.00
  20  22  0.00  0.00 -1.00  1.00  0.00 -1.00  0.00  1.00 -1.00  1.00  0.50  1.00
  21  19  0.00  1.00 -1.00  0.00  0.00 -1.00  1.00  0.00 -1.00  1.00  1.00  0.50
  22  20 -1.00  1.00  0.00 -1.00  0.00  1.00 -1.00  0.00  0.00  0.50  1.00  1.00
  23  23 -1.00  0.00  0.00 -1.00  1.00  0.00 -1.00  0.00  1.00  1.00  0.50  1.00
  24  24  1.00 -1.00  0.00  0.00 -1.00  0.00  0.00 -1.00  1.00  1.00  1.00  0.50
 TTTTTTTTTTTTTTTTTTTTTTTTTTTTTT END         TELAPSE    13014.70 TCPU    12855.26
 MMMMM END         USED MEM(MB)    504.82 MAX MEM    716.89 TOT MEM     16154.10
 EEEEEEEEEE TERMINATION  DATE 23 07 2024 TIME 20:59:47.2
NODE    0 CPU TIME =     12855.261
NODE    1 CPU TIME =     12888.395
NODE    2 CPU TIME =     12891.384
NODE    3 CPU TIME =     12888.211
NODE    4 CPU TIME =     12893.695
NODE    5 CPU TIME =     12890.040
NODE    6 CPU TIME =     12889.513
NODE    7 CPU TIME =     12890.728
NODE    8 CPU TIME =     12890.328
NODE    9 CPU TIME =     12891.725
NODE   10 CPU TIME =     12891.070
NODE   11 CPU TIME =     12890.080
NODE   12 CPU TIME =     12888.630
NODE   13 CPU TIME =     12890.886
NODE   14 CPU TIME =     12891.047
NODE   15 CPU TIME =     12891.460
NODE   16 CPU TIME =     12888.718
NODE   17 CPU TIME =     12889.124
NODE   18 CPU TIME =     12892.570
NODE   19 CPU TIME =     12889.396
NODE   20 CPU TIME =     12884.461
NODE   21 CPU TIME =     12900.157
NODE   22 CPU TIME =     12878.660
NODE   23 CPU TIME =     12885.509
NODE   24 CPU TIME =     12878.374
NODE   25 CPU TIME =     12875.196
NODE   26 CPU TIME =     12872.364
NODE   27 CPU TIME =     12874.226
NODE   28 CPU TIME =     12890.078
NODE   29 CPU TIME =     12890.048
NODE   30 CPU TIME =     12883.260
NODE   31 CPU TIME =     12889.451
    TOTAL CPU TIME =    412374.043
